<LesHouchesEvents version="1.0">
<!--
Output from the JHUGenerator v7.2.3 described in arXiv:1001.3396 [hep-ph], arXiv:1208.4018 [hep-ph], arXiv:1309.4819 [hep-ph], arXiv:1606.03107 [hep-ph]
   
   Command line: ./JHUGen VegasNc0=5000000 Process=51 VH_PC=gg DecayMode1=9 MReso=125 LHAPDF=NNPDF31_lo_as_0130/NNPDF31_lo_as_0130.info ReadCSmax VegasNc2=100 Seed=786453 DataFile=undecayed
   
   Input Parameter:
    Collider: P-P, sqrt(s)=13000.00
    Resonance: spin=0, mass= 125.00 width=   0.00407
    Random seed:      786453
    To reproduce results using this seed, JHUGen should be compiled with the same compiler:
      GNU Fortran (GCC) 6.3.0
    
    WidthScheme:   2
    LHAPDF set NNPDF31_lo_as_0130/NNPDF31_lo_as_0130.info, member=  0
    Unweighted: T
    
      Lambda=  1000.0
    
    LHE output: undecayed.lhe
    Histogram output: undecayed.dat
    Log file: undecayed.log
    
-->
<init>
2212 2212   6500.0000000000000000    6500.0000000000000000 0 0  315200  315200  3  1
 1.0000000E+00  1.0000000E+14  1.0000000E+00  51
</init>
<event>
 6  51   1.0000000E+00   1.2500000E+02   7.8125000E-03   1.2380865E-01
       21   -1    0    0  503  504  0.00000000000E+00  0.00000000000E+00  1.97770715433E+02  1.97770715433E+02  0.00000000000E+00 0.00000000000E+00  1.
       21   -1    0    0  504  503  0.00000000000E+00  0.00000000000E+00 -1.73986468323E+02  1.73986468323E+02  0.00000000000E+00 0.00000000000E+00  1.
       23    2    1    2    0    0 -2.26049518571E+01  1.44341297082E+02  4.24213743691E+01  1.78579192245E+02  9.35177042478E+01 0.00000000000E+00  1.
       25    1    1    2    0    0  2.26049518571E+01 -1.44341297082E+02 -1.86371272584E+01  1.93177991511E+02  1.25000000000E+02 0.00000000000E+00  1.
        2    1    3    3  502    0 -3.16574669414E+01  1.34335896172E+02  6.47818499523E+01  1.52463163737E+02  1.34869915235E-06 0.00000000000E+00  1.
       -2    1    3    3    0  502  9.05251508431E+00  1.00054009099E+01 -2.23604755832E+01  2.61160285079E+01  1.11828226085E-06 0.00000000000E+00  1.
</event>
<event>
 6  51   1.0000000E+00   1.2500000E+02   7.8125000E-03   1.2380865E-01
       21   -1    0    0  503  504  0.00000000000E+00  0.00000000000E+00  1.26515980902E+02  1.26515980902E+02  0.00000000000E+00 0.00000000000E+00  1.
       21   -1    0    0  504  503  0.00000000000E+00  0.00000000000E+00 -3.47204814540E+02  3.47204814540E+02  0.00000000000E+00 0.00000000000E+00  1.
       23    2    1    2    0    0 -5.25985646831E+01 -3.61754280972E+00 -2.98875592382E+02  3.17138980197E+02  9.20370437183E+01 0.00000000000E+00  1.
       25    1    1    2    0    0  5.25985646831E+01  3.61754280972E+00  7.81867587432E+01  1.56581815245E+02  1.25000000000E+02 0.00000000000E+00  1.
        1    1    3    3  502    0 -5.39019465276E+01  3.45784797919E+01 -1.43657136646E+02  1.57284659181E+02  1.90734863281E-06 0.00000000000E+00  1.
       -1    1    3    3    0  502  1.30338184445E+00 -3.81960226016E+01 -1.55218455735E+02  1.59854321016E+02  4.26496119976E-06 0.00000000000E+00  1.
</event>
<event>
 6  51   1.0000000E+00   1.2500000E+02   7.8125000E-03   1.2380865E-01
       21   -1    0    0  503  504  0.00000000000E+00  0.00000000000E+00  3.82583382424E+01  3.82583382424E+01  0.00000000000E+00 0.00000000000E+00  1.
       21   -1    0    0  504  503  0.00000000000E+00  0.00000000000E+00 -7.04059751290E+02  7.04059751290E+02  0.00000000000E+00 0.00000000000E+00  1.
       23    2    1    2    0    0 -4.41210991320E+01  1.00300427632E+02 -1.84816569541E+02  2.33419016184E+02  9.12163667753E+01 0.00000000000E+00  1.
       25    1    1    2    0    0  4.41210991320E+01 -1.00300427632E+02 -4.80984843507E+02  5.08899073348E+02  1.25000000000E+02 0.00000000000E+00  1.
       14    1    3    3    0    0 -1.82988354161E+01 -2.22140877024E+00 -8.85027876381E+01  9.04020212950E+01  9.53674316406E-07 0.00000000000E+00  1.
      -14    1    3    3    0    0 -2.58222637160E+01  1.02521836402E+02 -9.63137819031E+01  1.43016994889E+02  4.04609745705E-06 0.00000000000E+00  1.
</event>
<event>
 6  51   1.0000000E+00   1.2500000E+02   7.8125000E-03   1.2380865E-01
       21   -1    0    0  503  504  0.00000000000E+00  0.00000000000E+00  1.93168278928E+02  1.93168278928E+02  0.00000000000E+00 0.00000000000E+00  1.
       21   -1    0    0  504  503  0.00000000000E+00  0.00000000000E+00 -4.69448908667E+02  4.69448908667E+02  0.00000000000E+00 0.00000000000E+00  1.
       23    2    1    2    0    0  7.14720332620E+01  2.70846567279E+02 -1.43820893883E+02  3.28496406785E+02  9.35912667289E+01 0.00000000000E+00  1.
       25    1    1    2    0    0 -7.14720332620E+01 -2.70846567279E+02 -1.32459735856E+02  3.34120780809E+02  1.25000000000E+02 0.00000000000E+00  1.
       16    1    3    3    0    0  6.25922287581E+01  7.31571277046E+01 -3.35473494026E+01  1.01956741252E+02  1.16800772800E-06 0.00000000000E+00  1.
      -16    1    3    3    0    0  8.87980450388E+00  1.97689439575E+02 -1.10273544481E+02  2.26539665533E+02  2.69739830470E-06 0.00000000000E+00  1.
</event>
<event>
 6  51   1.0000000E+00   1.2500000E+02   7.8125000E-03   1.2380865E-01
       21   -1    0    0  503  504  0.00000000000E+00  0.00000000000E+00  3.69651386739E+01  3.69651386739E+01  0.00000000000E+00 0.00000000000E+00  1.
       21   -1    0    0  504  503  0.00000000000E+00  0.00000000000E+00 -9.14521236308E+02  9.14521236308E+02  0.00000000000E+00 0.00000000000E+00  1.
       23    2    1    2    0    0 -6.79489942116E+01 -8.11667352447E+01 -6.83534480964E+02  6.97568095884E+02  9.04254223330E+01 0.00000000000E+00  1.
       25    1    1    2    0    0  6.79489942116E+01  8.11667352447E+01 -1.94021616670E+02  2.53918279098E+02  1.25000000000E+02 0.00000000000E+00  1.
        3    1    3    3  502    0 -2.33778030170E+01  1.21428000253E+01 -2.70732208809E+02  2.72010841977E+02  0.00000000000E+00 0.00000000000E+00  1.
       -3    1    3    3    0  502 -4.45711911946E+01 -9.33095352701E+01 -4.12802272156E+02  4.25557253908E+02  7.62939453125E-06 0.00000000000E+00  1.
</event>
<event>
 6  51   1.0000000E+00   1.2500000E+02   7.8125000E-03   1.2380865E-01
       21   -1    0    0  503  504  0.00000000000E+00  0.00000000000E+00  2.63227413070E+02  2.63227413070E+02  0.00000000000E+00 0.00000000000E+00  1.
       21   -1    0    0  504  503  0.00000000000E+00  0.00000000000E+00 -1.61645668183E+02  1.61645668183E+02  0.00000000000E+00 0.00000000000E+00  1.
       23    2    1    2    0    0 -1.51729271433E+02  5.75058779933E+01 -1.91010649581E+01  1.87137853729E+02  9.12525495672E+01 0.00000000000E+00  1.
       25    1    1    2    0    0  1.51729271433E+02 -5.75058779933E+01  1.20682809845E+02  2.37735227523E+02  1.25000000000E+02 0.00000000000E+00  1.
       11    1    3    3    0    0 -6.84008397955E+01  3.79875596329E+00  3.19934720073E+01  7.56087804619E+01  5.10998041507E-04 0.00000000000E+00  1.
      -11    1    3    3    0    0 -8.33284316377E+01  5.37071220300E+01 -5.10945369654E+01  1.11529073268E+02  5.11003937192E-04 0.00000000000E+00  1.
</event>
<event>
 6  51   1.0000000E+00   1.2500000E+02   7.8125000E-03   1.2380865E-01
       21   -1    0    0  503  504  0.00000000000E+00  0.00000000000E+00  4.79684224427E+01  4.79684224427E+01  0.00000000000E+00 0.00000000000E+00  1.
       21   -1    0    0  504  503  0.00000000000E+00  0.00000000000E+00 -5.96653552698E+02  5.96653552698E+02  0.00000000000E+00 0.00000000000E+00  1.
       23    2    1    2    0    0 -2.54818089494E+01 -1.21948388734E+02 -3.27886642598E+02  3.61960155551E+02  8.93575498221E+01 0.00000000000E+00  1.
       25    1    1    2    0    0  2.54818089494E+01  1.21948388734E+02 -2.20798487657E+02  2.82661819590E+02  1.25000000000E+02 0.00000000000E+00  1.
        4    1    3    3  502    0  1.95073271421E+01 -7.95019676977E+01 -1.21567191389E+02  1.46565024229E+02  1.27500000000E+00 0.00000000000E+00  1.
       -4    1    3    3    0  502 -4.49891360916E+01 -4.24464210360E+01 -2.06319451209E+02  2.15395131322E+02  1.27500000000E+00 0.00000000000E+00  1.
</event>
<event>
 6  51   1.0000000E+00   1.2500000E+02   7.8125000E-03   1.2380865E-01
       21   -1    0    0  503  504  0.00000000000E+00  0.00000000000E+00  6.20565048063E+01  6.20565048063E+01  0.00000000000E+00 0.00000000000E+00  1.
       21   -1    0    0  504  503  0.00000000000E+00  0.00000000000E+00 -9.19647873796E+02  9.19647873796E+02  0.00000000000E+00 0.00000000000E+00  1.
       23    2    1    2    0    0 -1.24634715601E+02  1.77679072896E+01 -7.66807101621E+02  7.82414905564E+02  9.12712577401E+01 0.00000000000E+00  1.
       25    1    1    2    0    0  1.24634715601E+02 -1.77679072896E+01 -9.07842673684E+01  1.99289473038E+02  1.25000000000E+02 0.00000000000E+00  1.
        4    1    3    3  502    0 -7.15134580792E+01 -1.94672357170E+01 -5.78779745806E+02  5.83507298783E+02  1.27500000002E+00 0.00000000000E+00  1.
       -4    1    3    3    0  502 -5.31212575213E+01  3.72351430066E+01 -1.88027355815E+02  1.98907606780E+02  1.27500000000E+00 0.00000000000E+00  1.
</event>
<event>
 6  51   1.0000000E+00   1.2500000E+02   7.8125000E-03   1.2380865E-01
       21   -1    0    0  503  504  0.00000000000E+00  0.00000000000E+00  1.86648701743E+02  1.86648701743E+02  0.00000000000E+00 0.00000000000E+00  1.
       21   -1    0    0  504  503  0.00000000000E+00  0.00000000000E+00 -2.62059053719E+02  2.62059053719E+02  0.00000000000E+00 0.00000000000E+00  1.
       23    2    1    2    0    0  1.45891043975E+02 -1.07296405451E+01 -1.62935563675E+02  2.37319523573E+02  9.15053903352E+01 0.00000000000E+00  1.
       25    1    1    2    0    0 -1.45891043975E+02  1.07296405451E+01  8.75252116990E+01  2.11388231889E+02  1.25000000000E+02 0.00000000000E+00  1.
        5    1    3    3  502    0  5.48235143718E+01 -4.80212089881E+01 -5.69508653249E+01  9.26154296109E+01  4.75000000000E+00 0.00000000000E+00  1.
       -5    1    3    3    0  502  9.10675296027E+01  3.72915684430E+01 -1.05984698350E+02  1.44704093962E+02  4.75000000000E+00 0.00000000000E+00  1.
</event>
<event>
 6  51   1.0000000E+00   1.2500000E+02   7.8125000E-03   1.2380865E-01
       21   -1    0    0  503  504  0.00000000000E+00  0.00000000000E+00  2.41452746030E+02  2.41452746030E+02  0.00000000000E+00 0.00000000000E+00  1.
       21   -1    0    0  504  503  0.00000000000E+00  0.00000000000E+00 -1.09145719881E+02  1.09145719881E+02  0.00000000000E+00 0.00000000000E+00  1.
       23    2    1    2    0    0  5.00032731540E+01 -2.71447213498E+01  1.74948384111E+02  2.06791481964E+02  9.44384280180E+01 0.00000000000E+00  1.
       25    1    1    2    0    0 -5.00032731540E+01  2.71447213498E+01 -4.26413579617E+01  1.43806983948E+02  1.25000000000E+02 0.00000000000E+00  1.
        4    1    3    3  502    0  5.13521834651E+01  1.32318201387E+01  1.50450568472E+02  1.59527825126E+02  1.27500000000E+00 0.00000000000E+00  1.
       -4    1    3    3    0  502 -1.34891031115E+00 -4.03765414886E+01  2.44978156383E+01  4.72636568375E+01  1.27500000000E+00 0.00000000000E+00  1.
</event>
<event>
 6  51   1.0000000E+00   1.2500000E+02   7.8125000E-03   1.2380865E-01
       21   -1    0    0  503  504  0.00000000000E+00  0.00000000000E+00  3.81388993426E+02  3.81388993426E+02  0.00000000000E+00 0.00000000000E+00  1.
       21   -1    0    0  504  503  0.00000000000E+00  0.00000000000E+00 -8.35575808447E+01  8.35575808447E+01  0.00000000000E+00 0.00000000000E+00  1.
       23    2    1    2    0    0  1.23654416146E+02 -5.11110017096E+01  2.07479227881E+02  2.60762181115E+02  8.39436475822E+01 0.00000000000E+00  1.
       25    1    1    2    0    0 -1.23654416146E+02  5.11110017096E+01  9.03521847000E+01  2.04184393156E+02  1.25000000000E+02 0.00000000000E+00  1.
       16    1    3    3    0    0  7.60247486949E+01 -9.26571032094E+00  5.12350705768E+01  9.21447136784E+01  1.50789149292E-06 0.00000000000E+00  1.
      -16    1    3    3    0    0  4.76296674515E+01 -4.18452913886E+01  1.56244157305E+02  1.68617467437E+02  1.90734863281E-06 0.00000000000E+00  1.
</event>
<event>
 6  51   1.0000000E+00   1.2500000E+02   7.8125000E-03   1.2380865E-01
       21   -1    0    0  503  504  0.00000000000E+00  0.00000000000E+00  6.28382736092E+01  6.28382736092E+01  0.00000000000E+00 0.00000000000E+00  1.
       21   -1    0    0  504  503  0.00000000000E+00  0.00000000000E+00 -3.61905573794E+02  3.61905573794E+02  0.00000000000E+00 0.00000000000E+00  1.
       23    2    1    2    0    0 -3.49447496383E+01 -6.39805270181E+01 -3.10822096850E+01  1.20185721432E+02  9.03540840939E+01 0.00000000000E+00  1.
       25    1    1    2    0    0  3.49447496383E+01  6.39805270181E+01 -2.67985090499E+02  3.04558125971E+02  1.25000000000E+02 0.00000000000E+00  1.
        1    1    3    3  502    0  2.47156996388E+01  4.63993361201E+00 -5.81317999278E+00  2.58106151454E+01  1.00093219422E-06 0.00000000000E+00  1.
       -1    1    3    3    0  502 -5.96604492770E+01 -6.86204606301E+01 -2.52690296922E+01  9.43751062866E+01  2.58988868980E-06 0.00000000000E+00  1.
</event>
<event>
 6  51   1.0000000E+00   1.2500000E+02   7.8125000E-03   1.2380865E-01
       21   -1    0    0  503  504  0.00000000000E+00  0.00000000000E+00  1.66667039311E+02  1.66667039311E+02  0.00000000000E+00 0.00000000000E+00  1.
       21   -1    0    0  504  503  0.00000000000E+00  0.00000000000E+00 -3.30330270316E+02  3.30330270316E+02  0.00000000000E+00 0.00000000000E+00  1.
       23    2    1    2    0    0  4.49828687746E+01  1.50049392614E+02 -2.24553035826E+02  2.87543622531E+02  8.78577842440E+01 0.00000000000E+00  1.
       25    1    1    2    0    0 -4.49828687746E+01 -1.50049392614E+02  6.08898048221E+01  2.09453687096E+02  1.25000000000E+02 0.00000000000E+00  1.
        4    1    3    3  502    0  5.89635230230E+01  7.82214806143E+01 -1.70205800936E+02  1.96384666851E+02  1.27500000000E+00 0.00000000000E+00  1.
       -4    1    3    3    0  502 -1.39806542484E+01  7.18279119996E+01 -5.43472348900E+01  9.11589556797E+01  1.27500000000E+00 0.00000000000E+00  1.
</event>
<event>
 6  51   1.0000000E+00   1.2500000E+02   7.8125000E-03   1.2380865E-01
       21   -1    0    0  503  504  0.00000000000E+00  0.00000000000E+00  3.20931328634E+01  3.20931328634E+01  0.00000000000E+00 0.00000000000E+00  1.
       21   -1    0    0  504  503  0.00000000000E+00  0.00000000000E+00 -8.76580307688E+02  8.76580307688E+02  0.00000000000E+00 0.00000000000E+00  1.
       23    2    1    2    0    0  9.96513550525E+01 -4.68270465916E+01 -5.72746863752E+02  5.89940069976E+02  8.86969637001E+01 0.00000000000E+00  1.
       25    1    1    2    0    0 -9.96513550525E+01  4.68270465916E+01 -2.71740311073E+02  3.18733370576E+02  1.25000000000E+02 0.00000000000E+00  1.
        3    1    3    3  502    0  7.95567940063E+01 -3.17497335545E+01 -2.16810622722E+02  2.33118371602E+02  3.81469726562E-06 0.00000000000E+00  1.
       -3    1    3    3    0  502  2.00945610462E+01 -1.50773130371E+01 -3.55936241029E+02  3.56821698374E+02  0.00000000000E+00 0.00000000000E+00  1.
</event>
<event>
 6  51   1.0000000E+00   1.2500000E+02   7.8125000E-03   1.2380865E-01
       21   -1    0    0  503  504  0.00000000000E+00  0.00000000000E+00  1.37348260251E+02  1.37348260251E+02  0.00000000000E+00 0.00000000000E+00  1.
       21   -1    0    0  504  503  0.00000000000E+00  0.00000000000E+00 -2.29136121396E+02  2.29136121396E+02  0.00000000000E+00 0.00000000000E+00  1.
       23    2    1    2    0    0  8.00561269709E+00  1.16623408672E+02 -1.23437338958E+02  1.92438988916E+02  9.01713841596E+01 0.00000000000E+00  1.
       25    1    1    2    0    0 -8.00561269709E+00 -1.16623408672E+02  3.16494778125E+01  1.74045392730E+02  1.25000000000E+02 0.00000000000E+00  1.
        1    1    3    3  502    0 -1.17073562009E+01  4.25713118376E+01 -1.04585533499E+02  1.13523180884E+02  1.34869915235E-06 0.00000000000E+00  1.
       -1    1    3    3    0  502  1.97129688980E+01  7.40520968341E+01 -1.88518054590E+01  7.89158080321E+01  7.90744969930E-07 0.00000000000E+00  1.
</event>
<event>
 6  51   1.0000000E+00   1.2500000E+02   7.8125000E-03   1.2380865E-01
       21   -1    0    0  503  504  0.00000000000E+00  0.00000000000E+00  1.33915032798E+03  1.33915032798E+03  0.00000000000E+00 0.00000000000E+00  1.
       21   -1    0    0  504  503  0.00000000000E+00  0.00000000000E+00 -2.46112253644E+01  2.46112253644E+01  0.00000000000E+00 0.00000000000E+00  1.
       23    2    1    2    0    0  5.74917511830E+01  1.08886172811E+02  3.28898001479E+02  3.62624759328E+02  9.03400277701E+01 0.00000000000E+00  1.
       25    1    1    2    0    0 -5.74917511830E+01 -1.08886172811E+02  9.85641101138E+02  1.00113679402E+03  1.25000000000E+02 0.00000000000E+00  1.
        2    1    3    3  502    0  2.50949646794E+01  7.10727831784E+00  1.64640280175E+02  1.66693408728E+02  1.90734863281E-06 0.00000000000E+00  1.
       -2    1    3    3    0  502  3.23967865036E+01  1.01778894493E+02  1.64257721304E+02  1.95931350600E+02  3.30362473978E-06 0.00000000000E+00  1.
</event>
<event>
 6  51   1.0000000E+00   1.2500000E+02   7.8125000E-03   1.2380865E-01
       21   -1    0    0  503  504  0.00000000000E+00  0.00000000000E+00  3.78327151441E+02  3.78327151441E+02  0.00000000000E+00 0.00000000000E+00  1.
       21   -1    0    0  504  503  0.00000000000E+00  0.00000000000E+00 -1.67283274736E+02  1.67283274736E+02  0.00000000000E+00 0.00000000000E+00  1.
       23    2    1    2    0    0  1.05532496785E+02  2.00201271376E+02  1.23565847200E+02  2.72672589694E+02  8.86801310216E+01 0.00000000000E+00  1.
       25    1    1    2    0    0 -1.05532496785E+02 -2.00201271376E+02  8.74780295043E+01  2.72937836483E+02  1.25000000000E+02 0.00000000000E+00  1.
        2    1    3    3  502    0  1.06897357230E+02  1.11922522145E+02  7.75894085114E+01  1.73129466756E+02  3.01578298585E-06 0.00000000000E+00  1.
       -2    1    3    3    0  502 -1.36486044508E+00  8.82787492305E+01  4.59764386890E+01  9.95431229381E+01  6.74349576174E-07 0.00000000000E+00  1.
</event>
<event>
 6  51   1.0000000E+00   1.2500000E+02   7.8125000E-03   1.2380865E-01
       21   -1    0    0  503  504  0.00000000000E+00  0.00000000000E+00  1.39287405738E+03  1.39287405738E+03  0.00000000000E+00 0.00000000000E+00  1.
       21   -1    0    0  504  503  0.00000000000E+00  0.00000000000E+00 -2.09997777766E+01  2.09997777766E+01  0.00000000000E+00 0.00000000000E+00  1.
       23    2    1    2    0    0 -5.76860599182E+01  1.04076101135E+02  4.15922147779E+02  4.42468155394E+02  9.28833633532E+01 0.00000000000E+00  1.
       25    1    1    2    0    0  5.76860599182E+01 -1.04076101135E+02  9.55952131827E+02  9.71405679765E+02  1.25000000000E+02 0.00000000000E+00  1.
        1    1    3    3  502    0 -3.42021900586E+01  3.70878231789E+01  5.50114665744E+01  7.46428689670E+01  1.78416127528E-06 0.00000000000E+00  1.
       -1    1    3    3    0  502 -2.34838698595E+01  6.69882779564E+01  3.60910681205E+02  3.67825286427E+02  8.52992239952E-06 0.00000000000E+00  1.
</event>
<event>
 6  51   1.0000000E+00   1.2500000E+02   7.8125000E-03   1.2380865E-01
       21   -1    0    0  503  504  0.00000000000E+00  0.00000000000E+00  6.69619071916E+02  6.69619071916E+02  0.00000000000E+00 0.00000000000E+00  1.
       21   -1    0    0  504  503  0.00000000000E+00  0.00000000000E+00 -4.21828149645E+01  4.21828149645E+01  0.00000000000E+00 0.00000000000E+00  1.
       23    2    1    2    0    0  1.01068901481E+00 -1.23259740669E+02  3.69086742376E+02  3.99450391216E+02  9.02308510607E+01 0.00000000000E+00  1.
       25    1    1    2    0    0 -1.01068901481E+00  1.23259740669E+02  2.58349514576E+02  3.12351495664E+02  1.25000000000E+02 0.00000000000E+00  1.
        4    1    3    3  502    0  3.29800015619E+01 -3.30950039837E+01  6.09841977390E+01  7.68352639781E+01  1.27500000000E+00 0.00000000000E+00  1.
       -4    1    3    3    0  502 -3.19693125471E+01 -9.01647366855E+01  3.08102544636E+02  3.22615127238E+02  1.27499999999E+00 0.00000000000E+00  1.
</event>
<event>
 6  51   1.0000000E+00   1.2500000E+02   7.8125000E-03   1.2380865E-01
       21   -1    0    0  503  504  0.00000000000E+00  0.00000000000E+00  1.46626381797E+03  1.46626381797E+03  0.00000000000E+00 0.00000000000E+00  1.
       21   -1    0    0  504  503  0.00000000000E+00  0.00000000000E+00 -5.76614733980E+01  5.76614733980E+01  0.00000000000E+00 0.00000000000E+00  1.
       23    2    1    2    0    0  3.36673547422E+01 -1.25376528414E+02  6.69097681760E+01  1.70183538223E+02  8.73656394246E+01 0.00000000000E+00  1.
       25    1    1    2    0    0 -3.36673547422E+01  1.25376528414E+02  1.34169257639E+03  1.35374175314E+03  1.25000000000E+02 0.00000000000E+00  1.
        2    1    3    3  502    0  3.71265284813E+01 -1.21248195694E+02  8.41069320655E+01  1.52162676427E+02  2.13248059988E-06 0.00000000000E+00  1.
       -2    1    3    3    0  502 -3.45917373912E+00 -4.12833272066E+00 -1.71971638895E+01  1.80208617955E+01  1.99475294717E-06 0.00000000000E+00  1.
</event>
<event>
 6  51   1.0000000E+00   1.2500000E+02   7.8125000E-03   1.2380865E-01
       21   -1    0    0  503  504  0.00000000000E+00  0.00000000000E+00  3.49248035641E+02  3.49248035641E+02  0.00000000000E+00 0.00000000000E+00  1.
       21   -1    0    0  504  503  0.00000000000E+00  0.00000000000E+00 -9.07279625750E+01  9.07279625750E+01  0.00000000000E+00 0.00000000000E+00  1.
       23    2    1    2    0    0 -1.16795545247E+02  5.08671999123E+00  2.54330789931E+01  1.50801965987E+02  9.18004211794E+01 0.00000000000E+00  1.
       25    1    1    2    0    0  1.16795545247E+02 -5.08671999123E+00  2.33086994073E+02  2.89174032230E+02  1.25000000000E+02 0.00000000000E+00  1.
        2    1    3    3  502    0 -1.18378961236E+01 -1.62855695090E+01 -2.52584524903E+01  3.23008510889E+01  7.53945746462E-07 0.00000000000E+00  1.
       -2    1    3    3    0  502 -1.04957649123E+02  2.13722895002E+01  5.06915314834E+01  1.18501114898E+02  2.52318507296E-06 0.00000000000E+00  1.
</event>
<event>
 6  51   1.0000000E+00   1.2500000E+02   7.8125000E-03   1.2380865E-01
       21   -1    0    0  503  504  0.00000000000E+00  0.00000000000E+00  9.23543127834E+01  9.23543127834E+01  0.00000000000E+00 0.00000000000E+00  1.
       21   -1    0    0  504  503  0.00000000000E+00  0.00000000000E+00 -3.50358738432E+02  3.50358738432E+02  0.00000000000E+00 0.00000000000E+00  1.
       23    2    1    2    0    0 -6.23274400400E+01  9.04409697453E+01 -8.05696544214E+00  1.42441488036E+02  9.03348439498E+01 0.00000000000E+00  1.
       25    1    1    2    0    0  6.23274400400E+01 -9.04409697453E+01 -2.49947460206E+02  3.00271563179E+02  1.25000000000E+02 0.00000000000E+00  1.
        3    1    3    3  502    0 -2.12952512011E+01  8.59443527516E+01  2.21736366002E+01  9.12775418911E+01  1.89238880472E-06 0.00000000000E+00  1.
       -3    1    3    3    0  502 -4.10321888389E+01  4.49661699374E+00 -3.02306020423E+01  5.11639461451E+01  6.74349576174E-07 0.00000000000E+00  1.
</event>
<event>
 6  51   1.0000000E+00   1.2500000E+02   7.8125000E-03   1.2380865E-01
       21   -1    0    0  503  504  0.00000000000E+00  0.00000000000E+00  4.91749753560E+02  4.91749753560E+02  0.00000000000E+00 0.00000000000E+00  1.
       21   -1    0    0  504  503  0.00000000000E+00  0.00000000000E+00 -4.63055268481E+01  4.63055268481E+01  0.00000000000E+00 0.00000000000E+00  1.
       23    2    1    2    0    0  7.82424124493E+01  4.07984649478E+01  8.83062944336E+01  1.49520992964E+02  8.22929878680E+01 0.00000000000E+00  1.
       25    1    1    2    0    0 -7.82424124493E+01 -4.07984649478E+01  3.57137932278E+02  3.88534287444E+02  1.25000000000E+02 0.00000000000E+00  1.
        3    1    3    3  502    0  5.45097378977E+01 -1.52481064352E+01  5.97070061577E+01  8.22723699662E+01  6.74349576174E-07 0.00000000000E+00  1.
       -3    1    3    3    0  502  2.37326745515E+01  5.60465713830E+01  2.85992882759E+01  6.72486229974E+01  1.39020726558E-06 0.00000000000E+00  1.
</event>
<event>
 6  51   1.0000000E+00   1.2500000E+02   7.8125000E-03   1.2380865E-01
       21   -1    0    0  503  504  0.00000000000E+00  0.00000000000E+00  2.44370518918E+02  2.44370518918E+02  0.00000000000E+00 0.00000000000E+00  1.
       21   -1    0    0  504  503  0.00000000000E+00  0.00000000000E+00 -6.39000604941E+01  6.39000604941E+01  0.00000000000E+00 0.00000000000E+00  1.
       23    2    1    2    0    0  2.88109775542E+01  2.37242598496E+01  1.74665251644E+01  9.94927185382E+01  9.05583160608E+01 0.00000000000E+00  1.
       25    1    1    2    0    0 -2.88109775542E+01 -2.37242598496E+01  1.63003933260E+02  2.08777860874E+02  1.25000000000E+02 0.00000000000E+00  1.
       11    1    3    3    0    0  5.85184247310E+01  2.09120170843E+01 -4.69998948867E+00  6.23202085441E+01  5.10999345099E-04 0.00000000000E+00  1.
      -11    1    3    3    0    0 -2.97074471768E+01  2.81224276529E+00  2.21665146531E+01  3.71725099941E+01  5.10999710104E-04 0.00000000000E+00  1.
</event>
<event>
 6  51   1.0000000E+00   1.2500000E+02   7.8125000E-03   1.2380865E-01
       21   -1    0    0  503  504  0.00000000000E+00  0.00000000000E+00  1.32460038560E+02  1.32460038560E+02  0.00000000000E+00 0.00000000000E+00  1.
       21   -1    0    0  504  503  0.00000000000E+00  0.00000000000E+00 -1.57157447273E+03  1.57157447273E+03  0.00000000000E+00 0.00000000000E+00  1.
       23    2    1    2    0    0  2.99339615640E+02  1.10577023548E+02 -1.28711503512E+03  1.32912078663E+03  8.98079516906E+01 0.00000000000E+00  1.
       25    1    1    2    0    0 -2.99339615640E+02 -1.10577023548E+02 -1.51999399049E+02  3.74913724661E+02  1.25000000000E+02 0.00000000000E+00  1.
       15    1    3    3    0    0  2.11138697249E+02  3.50689016765E+01 -8.90065114505E+02  9.15438934292E+02  1.77679999999E+00 0.00000000000E+00  1.
      -15    1    3    3    0    0  8.82009183903E+01  7.55081218715E+01 -3.97049920616E+02  4.13681852337E+02  1.77680000000E+00 0.00000000000E+00  1.
</event>
<event>
 6  51   1.0000000E+00   1.2500000E+02   7.8125000E-03   1.2380865E-01
       21   -1    0    0  503  504  0.00000000000E+00  0.00000000000E+00  6.16585760707E+02  6.16585760707E+02  0.00000000000E+00 0.00000000000E+00  1.
       21   -1    0    0  504  503  0.00000000000E+00  0.00000000000E+00 -5.52934162852E+01  5.52934162852E+01  0.00000000000E+00 0.00000000000E+00  1.
       23    2    1    2    0    0 -2.86854409030E+01  6.89311655296E+01  5.00501560495E+02  5.14098064334E+02  9.06677869671E+01 0.00000000000E+00  1.
       25    1    1    2    0    0  2.86854409030E+01 -6.89311655296E+01  6.07907839267E+01  1.57781112658E+02  1.25000000000E+02 0.00000000000E+00  1.
        5    1    3    3  502    0 -1.58651615038E+01  7.48465800545E+01  2.15865630989E+02  2.29072580284E+02  4.75000000000E+00 0.00000000000E+00  1.
       -5    1    3    3    0  502 -1.28202793992E+01 -5.91541452496E+00  2.84635929505E+02  2.85025484050E+02  4.75000000000E+00 0.00000000000E+00  1.
</event>
<event>
 6  51   1.0000000E+00   1.2500000E+02   7.8125000E-03   1.2380865E-01
       21   -1    0    0  503  504  0.00000000000E+00  0.00000000000E+00  4.07570952006E+02  4.07570952006E+02  0.00000000000E+00 0.00000000000E+00  1.
       21   -1    0    0  504  503  0.00000000000E+00  0.00000000000E+00 -5.80262646303E+01  5.80262646303E+01  0.00000000000E+00 0.00000000000E+00  1.
       23    2    1    2    0    0 -3.66489845249E+01 -7.41147813230E+01  5.12920754865E+01  1.31807208733E+02  8.89163336459E+01 0.00000000000E+00  1.
       25    1    1    2    0    0  3.66489845249E+01  7.41147813230E+01  2.98252611889E+02  3.33790007903E+02  1.25000000000E+02 0.00000000000E+00  1.
       14    1    3    3    0    0 -4.50690472344E+01 -9.09792614364E+01  3.66647607935E+01  1.07947902778E+02  2.82100667148E-06 0.00000000000E+00  1.
      -14    1    3    3    0    0  8.42006270947E+00  1.68644801134E+01  1.46273146931E+01  2.38593059551E+01  5.84003863998E-07 0.00000000000E+00  1.
</event>
<event>
 6  51   1.0000000E+00   1.2500000E+02   7.8125000E-03   1.2380865E-01
       21   -1    0    0  503  504  0.00000000000E+00  0.00000000000E+00  4.34513967220E+02  4.34513967220E+02  0.00000000000E+00 0.00000000000E+00  1.
       21   -1    0    0  504  503  0.00000000000E+00  0.00000000000E+00 -3.70983186294E+02  3.70983186294E+02  0.00000000000E+00 0.00000000000E+00  1.
       23    2    1    2    0    0  3.14381250230E+02 -1.64855030910E+01 -1.93420866385E+02  3.80342485934E+02  9.02298883124E+01 0.00000000000E+00  1.
       25    1    1    2    0    0 -3.14381250230E+02  1.64855030910E+01  2.56951647311E+02  4.25154667580E+02  1.25000000000E+02 0.00000000000E+00  1.
       16    1    3    3    0    0  2.54319451754E+02 -4.18161667510E+01 -1.27171412104E+02  2.87401362904E+02  6.03156597170E-06 0.00000000000E+00  1.
      -16    1    3    3    0    0  6.00617984761E+01  2.53306636600E+01 -6.62494542811E+01  9.29411230306E+01  1.34869915235E-06 0.00000000000E+00  1.
</event>
<event>
 6  51   1.0000000E+00   1.2500000E+02   7.8125000E-03   1.2380865E-01
       21   -1    0    0  503  504  0.00000000000E+00  0.00000000000E+00  1.01337750313E+02  1.01337750313E+02  0.00000000000E+00 0.00000000000E+00  1.
       21   -1    0    0  504  503  0.00000000000E+00  0.00000000000E+00 -1.82959984287E+02  1.82959984287E+02  0.00000000000E+00 0.00000000000E+00  1.
       23    2    1    2    0    0  6.27008859429E+01  4.72498627579E+00 -9.27864265944E+01  1.43929056505E+02  9.02913381942E+01 0.00000000000E+00  1.
       25    1    1    2    0    0 -6.27008859429E+01 -4.72498627579E+00  1.11641926198E+01  1.40368678095E+02  1.25000000000E+02 0.00000000000E+00  1.
        3    1    3    3  502    0  5.46307087392E+01 -1.18843665645E+01 -7.19644284364E+00  5.63696841892E+01  1.33812095646E-06 0.00000000000E+00  1.
       -3    1    3    3    0  502  8.07017720374E+00  1.66093528403E+01 -8.55899837507E+01  8.75593723157E+01  1.34869915235E-06 0.00000000000E+00  1.
</event>
<event>
 6  51   1.0000000E+00   1.2500000E+02   7.8125000E-03   1.2380865E-01
       21   -1    0    0  503  504  0.00000000000E+00  0.00000000000E+00  7.95372639232E+02  7.95372639232E+02  0.00000000000E+00 0.00000000000E+00  1.
       21   -1    0    0  504  503  0.00000000000E+00  0.00000000000E+00 -8.22733494434E+01  8.22733494434E+01  0.00000000000E+00 0.00000000000E+00  1.
       23    2    1    2    0    0 -7.94160062414E+01 -2.10603408835E+02  2.73648063434E+02  3.68329703638E+02  1.00612176701E+02 0.00000000000E+00  1.
       25    1    1    2    0    0  7.94160062414E+01  2.10603408835E+02  4.39451226354E+02  5.09316285037E+02  1.25000000000E+02 0.00000000000E+00  1.
       16    1    3    3    0    0 -7.73888372743E+01 -6.59877660727E+01  1.05525530175E+02  1.46557343469E+02  0.00000000000E+00 0.00000000000E+00  1.
      -16    1    3    3    0    0 -2.02716896710E+00 -1.44615642762E+02  1.68122533260E+02  2.21772360169E+02  4.26496119976E-06 0.00000000000E+00  1.
</event>
<event>
 6  51   1.0000000E+00   1.2500000E+02   7.8125000E-03   1.2380865E-01
       21   -1    0    0  503  504  0.00000000000E+00  0.00000000000E+00  1.77104440855E+02  1.77104440855E+02  0.00000000000E+00 0.00000000000E+00  1.
       21   -1    0    0  504  503  0.00000000000E+00  0.00000000000E+00 -1.08354864172E+02  1.08354864172E+02  0.00000000000E+00 0.00000000000E+00  1.
       23    2    1    2    0    0  7.34828023239E+01 -2.27150753027E+01 -7.19386309796E+00  1.20207669849E+02  9.21001375720E+01 0.00000000000E+00  1.
       25    1    1    2    0    0 -7.34828023239E+01  2.27150753027E+01  7.59434397809E+01  1.65251635178E+02  1.25000000000E+02 0.00000000000E+00  1.
        2    1    3    3  502    0  3.49281388296E+01 -1.78199474116E+01 -4.92439387540E+01  6.29483193728E+01  0.00000000000E+00 0.00000000000E+00  1.
       -2    1    3    3    0  502  3.85546634943E+01 -4.89512789104E+00  4.20500756561E+01  5.72593504758E+01  9.53674316406E-07 0.00000000000E+00  1.
</event>
<event>
 6  51   1.0000000E+00   1.2500000E+02   7.8125000E-03   1.2380865E-01
       21   -1    0    0  503  504  0.00000000000E+00  0.00000000000E+00  2.15266535319E+02  2.15266535319E+02  0.00000000000E+00 0.00000000000E+00  1.
       21   -1    0    0  504  503  0.00000000000E+00  0.00000000000E+00 -1.79219066624E+02  1.79219066624E+02  0.00000000000E+00 0.00000000000E+00  1.
       23    2    1    2    0    0 -2.69289601051E+01 -1.59998041313E+02  3.24066198706E+01  1.89637370570E+02  9.26693109345E+01 0.00000000000E+00  1.
       25    1    1    2    0    0  2.69289601051E+01  1.59998041313E+02  3.64084882520E+00  2.04848231373E+02  1.25000000000E+02 0.00000000000E+00  1.
        4    1    3    3  502    0 -1.11114322399E+01 -9.86729893098E+01  6.47134092596E+01  1.18529632197E+02  1.27500000000E+00 0.00000000000E+00  1.
       -4    1    3    3    0  502 -1.58175278652E+01 -6.13250520032E+01 -3.23067893889E+01  7.11077383734E+01  1.27500000000E+00 0.00000000000E+00  1.
</event>
<event>
 6  51   1.0000000E+00   1.2500000E+02   7.8125000E-03   1.2380865E-01
       21   -1    0    0  503  504  0.00000000000E+00  0.00000000000E+00  1.24657714009E+02  1.24657714009E+02  0.00000000000E+00 0.00000000000E+00  1.
       21   -1    0    0  504  503  0.00000000000E+00  0.00000000000E+00 -6.15217611184E+02  6.15217611184E+02  0.00000000000E+00 0.00000000000E+00  1.
       23    2    1    2    0    0  2.16196742633E+02  3.18394551619E+01 -6.26496189860E+01  2.43400765311E+02  8.69722677914E+01 0.00000000000E+00  1.
       25    1    1    2    0    0 -2.16196742633E+02 -3.18394551619E+01 -4.27910278189E+02  4.96474559882E+02  1.25000000000E+02 0.00000000000E+00  1.
        3    1    3    3  502    0  3.83818434590E+01  5.60740450130E+00 -4.99093567143E+01  6.32103850660E+01  9.53674316406E-07 0.00000000000E+00  1.
       -3    1    3    3    0  502  1.77814899174E+02  2.62320506606E+01 -1.27402622717E+01  1.80190380245E+02  4.61387693414E-06 0.00000000000E+00  1.
</event>
<event>
 6  51   1.0000000E+00   1.2500000E+02   7.8125000E-03   1.2380865E-01
       21   -1    0    0  503  504  0.00000000000E+00  0.00000000000E+00  1.63992357027E+02  1.63992357027E+02  0.00000000000E+00 0.00000000000E+00  1.
       21   -1    0    0  504  503  0.00000000000E+00  0.00000000000E+00 -2.74077285016E+02  2.74077285016E+02  0.00000000000E+00 0.00000000000E+00  1.
       23    2    1    2    0    0 -9.96267388488E+01  9.37361603891E+01  7.17723905003E+01  1.78437134167E+02  8.93117010997E+01 0.00000000000E+00  1.
       25    1    1    2    0    0  9.96267388488E+01 -9.37361603891E+01 -1.81857318489E+02  2.59632507876E+02  1.25000000000E+02 0.00000000000E+00  1.
        5    1    3    3  502    0 -4.94049214939E+01  8.93064242593E+01  1.65368234415E+01  1.03501269129E+02  4.75000000000E+00 0.00000000000E+00  1.
       -5    1    3    3    0  502 -5.02218173550E+01  4.42973612979E+00  5.52355670588E+01  7.49358650375E+01  4.75000000000E+00 0.00000000000E+00  1.
</event>
<event>
 6  51   1.0000000E+00   1.2500000E+02   7.8125000E-03   1.2380865E-01
       21   -1    0    0  503  504  0.00000000000E+00  0.00000000000E+00  1.08246346147E+03  1.08246346147E+03  0.00000000000E+00 0.00000000000E+00  1.
       21   -1    0    0  504  503  0.00000000000E+00  0.00000000000E+00 -5.44626601691E+01  5.44626601691E+01  0.00000000000E+00 0.00000000000E+00  1.
       23    2    1    2    0    0  6.11541678807E+01  2.07936364634E+02  4.73932689993E+02  5.28983825072E+02  9.07432011653E+01 0.00000000000E+00  1.
       25    1    1    2    0    0 -6.11541678807E+01 -2.07936364634E+02  5.54068111304E+02  6.07942296563E+02  1.25000000000E+02 0.00000000000E+00  1.
       14    1    3    3    0    0  6.88527980350E+01  7.52480694950E+01  2.11974173178E+02  2.35236115115E+02  2.69739830470E-06 0.00000000000E+00  1.
      -14    1    3    3    0    0 -7.69863015431E+00  1.32688295139E+02  2.61958516815E+02  2.93747709957E+02  5.39479660939E-06 0.00000000000E+00  1.
</event>
<event>
 6  51   1.0000000E+00   1.2500000E+02   7.8125000E-03   1.2380865E-01
       21   -1    0    0  503  504  0.00000000000E+00  0.00000000000E+00  1.46821141049E+03  1.46821141049E+03  0.00000000000E+00 0.00000000000E+00  1.
       21   -1    0    0  504  503  0.00000000000E+00  0.00000000000E+00 -4.20274478347E+01  4.20274478347E+01  0.00000000000E+00 0.00000000000E+00  1.
       23    2    1    2    0    0 -9.23314793285E+01 -1.20318305323E+02  1.18942606730E+03  1.20253624592E+03  9.14191254278E+01 0.00000000000E+00  1.
       25    1    1    2    0    0  9.23314793285E+01  1.20318305323E+02  2.36757895353E+02  3.07702612408E+02  1.25000000000E+02 0.00000000000E+00  1.
        2    1    3    3  502    0 -1.86580941899E+01 -8.63353959929E+01  4.43465745386E+02  4.52176726967E+02  5.39479660939E-06 0.00000000000E+00  1.
       -2    1    3    3    0  502 -7.36733851386E+01 -3.39829093304E+01  7.45960321917E+02  7.50359518950E+02  0.00000000000E+00 0.00000000000E+00  1.
</event>
<event>
 6  51   1.0000000E+00   1.2500000E+02   7.8125000E-03   1.2380865E-01
       21   -1    0    0  503  504  0.00000000000E+00  0.00000000000E+00  4.35724001483E+02  4.35724001483E+02  0.00000000000E+00 0.00000000000E+00  1.
       21   -1    0    0  504  503  0.00000000000E+00  0.00000000000E+00 -4.19060561423E+01  4.19060561423E+01  0.00000000000E+00 0.00000000000E+00  1.
       23    2    1    2    0    0 -1.54107738656E+01 -6.74214805779E+01  1.00864528456E+02  1.51700843747E+02  8.97571439978E+01 0.00000000000E+00  1.
       25    1    1    2    0    0  1.54107738656E+01  6.74214805779E+01  2.92953416885E+02  3.25929213878E+02  1.25000000000E+02 0.00000000000E+00  1.
        1    1    3    3  502    0 -3.69827593684E+01 -7.79053849131E+01  9.20817587534E+01  1.26158724566E+02  2.69739830470E-06 0.00000000000E+00  1.
       -1    1    3    3    0  502  2.15719855028E+01  1.04839043352E+01  8.78276970226E+00  2.55421191816E+01  9.68460846500E-07 0.00000000000E+00  1.
</event>
<event>
 6  51   1.0000000E+00   1.2500000E+02   7.8125000E-03   1.2380865E-01
       21   -1    0    0  503  504  0.00000000000E+00  0.00000000000E+00  4.16153957951E+02  4.16153957951E+02  0.00000000000E+00 0.00000000000E+00  1.
       21   -1    0    0  504  503  0.00000000000E+00  0.00000000000E+00 -1.18080199967E+02  1.18080199967E+02  0.00000000000E+00 0.00000000000E+00  1.
       23    2    1    2    0    0 -3.47311927286E+01  1.51923149222E+02  6.50994821623E+00  1.80792006804E+02  9.14137368258E+01 0.00000000000E+00  1.
       25    1    1    2    0    0  3.47311927286E+01 -1.51923149222E+02  2.91563809768E+02  3.53442151114E+02  1.25000000000E+02 0.00000000000E+00  1.
        5    1    3    3  502    0 -2.19126507486E+01  4.27509455354E+01  4.32301931862E+01  6.48013866358E+01  4.75000000000E+00 0.00000000000E+00  1.
       -5    1    3    3    0  502 -1.28185419800E+01  1.09172203687E+02 -3.67202449700E+01  1.15990620168E+02  4.75000000000E+00 0.00000000000E+00  1.
</event>
<event>
 6  51   1.0000000E+00   1.2500000E+02   7.8125000E-03   1.2380865E-01
       21   -1    0    0  503  504  0.00000000000E+00  0.00000000000E+00  3.02739376897E+02  3.02739376897E+02  0.00000000000E+00 0.00000000000E+00  1.
       21   -1    0    0  504  503  0.00000000000E+00  0.00000000000E+00 -8.78841521478E+01  8.78841521478E+01  0.00000000000E+00 0.00000000000E+00  1.
       23    2    1    2    0    0 -1.09261802300E+02  5.19261613296E+01  5.57889601903E+01  1.54908565173E+02  7.90555995032E+01 0.00000000000E+00  1.
       25    1    1    2    0    0  1.09261802300E+02 -5.19261613296E+01  1.59066264559E+02  2.35714963872E+02  1.25000000000E+02 0.00000000000E+00  1.
        5    1    3    3  502    0 -7.35899659727E+01  6.16188103735E+01  1.11291365591E+01  9.67407931757E+01  4.75000000000E+00 0.00000000000E+00  1.
       -5    1    3    3    0  502 -3.56718363269E+01 -9.69264904389E+00  4.46598236312E+01  5.81677719978E+01  4.75000000000E+00 0.00000000000E+00  1.
</event>
<event>
 6  51   1.0000000E+00   1.2500000E+02   7.8125000E-03   1.2380865E-01
       21   -1    0    0  503  504  0.00000000000E+00  0.00000000000E+00  2.12839494566E+02  2.12839494566E+02  0.00000000000E+00 0.00000000000E+00  1.
       21   -1    0    0  504  503  0.00000000000E+00  0.00000000000E+00 -1.53981800164E+02  1.53981800164E+02  0.00000000000E+00 0.00000000000E+00  1.
       23    2    1    2    0    0 -8.42894529040E+01  8.45712254843E+01 -5.48417140882E+01  1.59916583469E+02  9.11520488720E+01 0.00000000000E+00  1.
       25    1    1    2    0    0  8.42894529040E+01 -8.45712254843E+01  1.13699408490E+02  2.06904711260E+02  1.25000000000E+02 0.00000000000E+00  1.
       16    1    3    3    0    0 -1.00933134969E+01 -3.37660077689E+00 -4.29384284501E+01  4.42378237250E+01  1.16800772800E-06 0.00000000000E+00  1.
      -16    1    3    3    0    0 -7.41961394071E+01  8.79478262612E+01 -1.19032856380E+01  1.15678759744E+02  2.37821785727E-06 0.00000000000E+00  1.
</event>
<event>
 6  51   1.0000000E+00   1.2500000E+02   7.8125000E-03   1.2380865E-01
       21   -1    0    0  503  504  0.00000000000E+00  0.00000000000E+00  2.47198153277E+02  2.47198153277E+02  0.00000000000E+00 0.00000000000E+00  1.
       21   -1    0    0  504  503  0.00000000000E+00  0.00000000000E+00 -2.04200900347E+02  2.04200900347E+02  0.00000000000E+00 0.00000000000E+00  1.
       23    2    1    2    0    0  1.89639756338E+02 -4.60163797675E+01  5.28954219040E+01  2.19442768649E+02  8.53021609514E+01 0.00000000000E+00  1.
       25    1    1    2    0    0 -1.89639756338E+02  4.60163797675E+01 -9.89816897352E+00  2.31956284976E+02  1.25000000000E+02 0.00000000000E+00  1.
        2    1    3    3  502    0  7.40948689757E+01 -2.65916455591E+01  6.44067973972E+01  1.01712343268E+02  1.90734863281E-06 0.00000000000E+00  1.
       -2    1    3    3    0  502  1.15544887362E+02 -1.94247342084E+01 -1.15113754932E+01  1.17730425381E+02  3.18090058902E-06 0.00000000000E+00  1.
</event>
<event>
 6  51   1.0000000E+00   1.2500000E+02   7.8125000E-03   1.2380865E-01
       21   -1    0    0  503  504  0.00000000000E+00  0.00000000000E+00  2.14006625134E+02  2.14006625134E+02  0.00000000000E+00 0.00000000000E+00  1.
       21   -1    0    0  504  503  0.00000000000E+00  0.00000000000E+00 -1.75340361345E+02  1.75340361345E+02  0.00000000000E+00 0.00000000000E+00  1.
       23    2    1    2    0    0  4.39639062139E+01 -9.08105539674E+01  1.42662333556E+02  1.97984596526E+02  9.30912309758E+01 0.00000000000E+00  1.
       25    1    1    2    0    0 -4.39639062139E+01  9.08105539674E+01 -1.03996069767E+02  1.91362389953E+02  1.25000000000E+02 0.00000000000E+00  1.
        5    1    3    3  502    0  5.56258005235E+01 -8.93279383259E+01  7.54137312046E+01  1.29551162108E+02  4.75000000000E+00 0.00000000000E+00  1.
       -5    1    3    3    0  502 -1.16618943096E+01 -1.48261564148E+00  6.72486023510E+01  6.84334344176E+01  4.75000000000E+00 0.00000000000E+00  1.
</event>
<event>
 6  51   1.0000000E+00   1.2500000E+02   7.8125000E-03   1.2380865E-01
       21   -1    0    0  503  504  0.00000000000E+00  0.00000000000E+00  8.98787800892E+01  8.98787800892E+01  0.00000000000E+00 0.00000000000E+00  1.
       21   -1    0    0  504  503  0.00000000000E+00  0.00000000000E+00 -5.66257483699E+02  5.66257483699E+02  0.00000000000E+00 0.00000000000E+00  1.
       23    2    1    2    0    0  3.12369250864E+01 -1.66251025008E+02 -3.77872847357E+02  4.23878750409E+02  9.09404061663E+01 0.00000000000E+00  1.
       25    1    1    2    0    0 -3.12369250864E+01  1.66251025008E+02 -9.85058562530E+01  2.32257513379E+02  1.25000000000E+02 0.00000000000E+00  1.
        3    1    3    3  502    0 -2.83406006837E+00 -1.52912716487E+02 -2.74623562769E+02  3.14338085488E+02  5.39479660939E-06 0.00000000000E+00  1.
       -3    1    3    3    0  502  3.40709851548E+01 -1.33383085213E+01 -1.03249284588E+02  1.09540664922E+02  1.90734863281E-06 0.00000000000E+00  1.
</event>
<event>
 6  51   1.0000000E+00   1.2500000E+02   7.8125000E-03   1.2380865E-01
       21   -1    0    0  503  504  0.00000000000E+00  0.00000000000E+00  3.63385443790E+01  3.63385443790E+01  0.00000000000E+00 0.00000000000E+00  1.
       21   -1    0    0  504  503  0.00000000000E+00  0.00000000000E+00 -1.46018224782E+03  1.46018224782E+03  0.00000000000E+00 0.00000000000E+00  1.
       23    2    1    2    0    0 -1.16366256299E+02  9.69707917327E+01 -1.12460439080E+03  1.13859118140E+03  9.33295371712E+01 0.00000000000E+00  1.
       25    1    1    2    0    0  1.16366256299E+02 -9.69707917327E+01 -2.99239312641E+02  3.57929610795E+02  1.25000000000E+02 0.00000000000E+00  1.
       16    1    3    3    0    0 -9.55370651582E+01  2.59767227816E+01 -5.07474610813E+02  5.17042166138E+02  9.34406182397E-06 0.00000000000E+00  1.
      -16    1    3    3    0    0 -2.08291911409E+01  7.09940689511E+01 -6.17129779984E+02  6.21549015261E+02  1.07895932188E-05 0.00000000000E+00  1.
</event>
<event>
 6  51   1.0000000E+00   1.2500000E+02   7.8125000E-03   1.2380865E-01
       21   -1    0    0  503  504  0.00000000000E+00  0.00000000000E+00  2.12625877973E+02  2.12625877973E+02  0.00000000000E+00 0.00000000000E+00  1.
       21   -1    0    0  504  503  0.00000000000E+00  0.00000000000E+00 -1.49400201981E+02  1.49400201981E+02  0.00000000000E+00 0.00000000000E+00  1.
       23    2    1    2    0    0 -1.99910236475E+01  3.65902577928E+01  1.68200533136E+02  1.93552911098E+02  8.62138159200E+01 0.00000000000E+00  1.
       25    1    1    2    0    0  1.99910236475E+01 -3.65902577928E+01 -1.04974857145E+02  1.68473168856E+02  1.25000000000E+02 0.00000000000E+00  1.
        3    1    3    3  502    0  2.47303326022E+00  6.09396555044E+01  9.10417853895E+01  1.09582681996E+02  3.01578298585E-06 0.00000000000E+00  1.
       -3    1    3    3    0  502 -2.24640569077E+01 -2.43493977116E+01  7.71587477463E+01  8.39702291021E+01  0.00000000000E+00 0.00000000000E+00  1.
</event>
<event>
 6  51   1.0000000E+00   1.2500000E+02   7.8125000E-03   1.2380865E-01
       21   -1    0    0  503  504  0.00000000000E+00  0.00000000000E+00  5.88638886292E+01  5.88638886292E+01  0.00000000000E+00 0.00000000000E+00  1.
       21   -1    0    0  504  503  0.00000000000E+00  0.00000000000E+00 -1.36595864073E+03  1.36595864073E+03  0.00000000000E+00 0.00000000000E+00  1.
       23    2    1    2    0    0  1.21754678232E+02  1.78024449597E+02 -1.01199395016E+03  1.03852421247E+03  8.87912067682E+01 0.00000000000E+00  1.
       25    1    1    2    0    0 -1.21754678232E+02 -1.78024449597E+02 -2.95100801942E+02  3.86298316890E+02  1.25000000000E+02 0.00000000000E+00  1.
        5    1    3    3  502    0  6.41848513500E+01  6.64454622278E+01 -6.20624694312E+02  6.27480890771E+02  4.74999999998E+00 0.00000000000E+00  1.
       -5    1    3    3    0  502  5.75698268819E+01  1.11578987370E+02 -3.91369255849E+02  4.11043321699E+02  4.74999999999E+00 0.00000000000E+00  1.
</event>
<event>
 6  51   1.0000000E+00   1.2500000E+02   7.8125000E-03   1.2380865E-01
       21   -1    0    0  503  504  0.00000000000E+00  0.00000000000E+00  6.86094218468E+01  6.86094218468E+01  0.00000000000E+00 0.00000000000E+00  1.
       21   -1    0    0  504  503  0.00000000000E+00  0.00000000000E+00 -4.63041614840E+02  4.63041614840E+02  0.00000000000E+00 0.00000000000E+00  1.
       23    2    1    2    0    0 -1.30274614387E+02  3.99944236168E+01 -1.32253612359E+02  2.10818312020E+02  9.15549759805E+01 0.00000000000E+00  1.
       25    1    1    2    0    0  1.30274614387E+02 -3.99944236168E+01 -2.62178580634E+02  3.20832724667E+02  1.25000000000E+02 0.00000000000E+00  1.
       14    1    3    3    0    0 -2.00357274919E+01  4.94968096910E+01 -3.91718758094E+01  6.62253758022E+01  1.26159253648E-06 0.00000000000E+00  1.
      -14    1    3    3    0    0 -1.10238886895E+02 -9.50238607420E+00 -9.30817365498E+01  1.44592936218E+02  3.01578298585E-06 0.00000000000E+00  1.
</event>
<event>
 6  51   1.0000000E+00   1.2500000E+02   7.8125000E-03   1.2380865E-01
       21   -1    0    0  503  504  0.00000000000E+00  0.00000000000E+00  3.14419443586E+02  3.14419443586E+02  0.00000000000E+00 0.00000000000E+00  1.
       21   -1    0    0  504  503  0.00000000000E+00  0.00000000000E+00 -1.32716806939E+02  1.32716806939E+02  0.00000000000E+00 0.00000000000E+00  1.
       23    2    1    2    0    0  6.25072513434E+01  1.20597313185E+02  2.01516954642E+02  2.61479374500E+02  9.64961753800E+01 0.00000000000E+00  1.
       25    1    1    2    0    0 -6.25072513434E+01 -1.20597313185E+02 -1.98143179940E+01  1.85656876025E+02  1.25000000000E+02 0.00000000000E+00  1.
       11    1    3    3    0    0  6.89793283286E+01  9.74750269077E+01  9.58631981135E+01  1.53131581851E+02  5.11000377541E-04 0.00000000000E+00  1.
      -11    1    3    3    0    0 -6.47207698520E+00  2.31222862770E+01  1.05653756528E+02  1.08347792649E+02  5.11002157370E-04 0.00000000000E+00  1.
</event>
<event>
 6  51   1.0000000E+00   1.2500000E+02   7.8125000E-03   1.2380865E-01
       21   -1    0    0  503  504  0.00000000000E+00  0.00000000000E+00  2.96878774067E+01  2.96878774067E+01  0.00000000000E+00 0.00000000000E+00  1.
       21   -1    0    0  504  503  0.00000000000E+00  0.00000000000E+00 -6.39068879157E+02  6.39068879157E+02  0.00000000000E+00 0.00000000000E+00  1.
       23    2    1    2    0    0  4.64295198986E+01  4.45974114015E+01 -1.42861726861E+02  1.81509526438E+02  9.16057081430E+01 0.00000000000E+00  1.
       25    1    1    2    0    0 -4.64295198986E+01 -4.45974114015E+01 -4.66519274890E+02  4.87247230126E+02  1.25000000000E+02 0.00000000000E+00  1.
        3    1    3    3  502    0  3.14461939553E+01  8.86188179885E+00  8.33120300719E-01  3.26816485620E+01  6.69558106025E-07 0.00000000000E+00  1.
       -3    1    3    3    0  502  1.49833259433E+01  3.57355296026E+01 -1.43694847162E+02  1.48827877876E+02  3.30362473978E-06 0.00000000000E+00  1.
</event>
<event>
 6  51   1.0000000E+00   1.2500000E+02   7.8125000E-03   1.2380865E-01
       21   -1    0    0  503  504  0.00000000000E+00  0.00000000000E+00  1.16655966976E+03  1.16655966976E+03  0.00000000000E+00 0.00000000000E+00  1.
       21   -1    0    0  504  503  0.00000000000E+00  0.00000000000E+00 -3.20010296933E+01  3.20010296933E+01  0.00000000000E+00 0.00000000000E+00  1.
       23    2    1    2    0    0  6.82293892301E+01  1.05943174542E+02  8.42352406166E+02  8.56670821105E+02  9.19136212527E+01 0.00000000000E+00  1.
       25    1    1    2    0    0 -6.82293892301E+01 -1.05943174542E+02  2.92206233901E+02  3.41889878349E+02  1.25000000000E+02 0.00000000000E+00  1.
        5    1    3    3  502    0 -6.94309134437E+00  4.58360230793E+01  4.60283281260E+02  4.62636368043E+02  4.75000000001E+00 0.00000000000E+00  1.
       -5    1    3    3    0  502  7.51724805744E+01  6.01071514630E+01  3.82069124906E+02  3.94034453061E+02  4.75000000000E+00 0.00000000000E+00  1.
</event>
<event>
 6  51   1.0000000E+00   1.2500000E+02   7.8125000E-03   1.2380865E-01
       21   -1    0    0  503  504  0.00000000000E+00  0.00000000000E+00  1.60812740191E+02  1.60812740191E+02  0.00000000000E+00 0.00000000000E+00  1.
       21   -1    0    0  504  503  0.00000000000E+00  0.00000000000E+00 -2.51438392288E+02  2.51438392288E+02  0.00000000000E+00 0.00000000000E+00  1.
       23    2    1    2    0    0 -1.24324550487E+02  9.25478929104E+01 -1.13392462387E+02  2.11838972203E+02  8.94214363655E+01 0.00000000000E+00  1.
       25    1    1    2    0    0  1.24324550487E+02 -9.25478929104E+01  2.27668102892E+01  2.00412160277E+02  1.25000000000E+02 0.00000000000E+00  1.
        4    1    3    3  502    0  5.19779189257E+00  3.37711692452E+01 -3.70101544491E+01  5.03873602215E+01  1.27500000000E+00 0.00000000000E+00  1.
       -4    1    3    3    0  502 -1.29522342380E+02  5.87767236652E+01 -7.63823079377E+01  1.61451611981E+02  1.27500000000E+00 0.00000000000E+00  1.
</event>
<event>
 6  51   1.0000000E+00   1.2500000E+02   7.8125000E-03   1.2380865E-01
       21   -1    0    0  503  504  0.00000000000E+00  0.00000000000E+00  8.03970174880E+01  8.03970174880E+01  0.00000000000E+00 0.00000000000E+00  1.
       21   -1    0    0  504  503  0.00000000000E+00  0.00000000000E+00 -3.82604732064E+02  3.82604732064E+02  0.00000000000E+00 0.00000000000E+00  1.
       23    2    1    2    0    0  3.26466277466E+01  1.11859441929E+02 -4.64749984306E+01  1.55426459324E+02  9.17557721718E+01 0.00000000000E+00  1.
       25    1    1    2    0    0 -3.26466277466E+01 -1.11859441929E+02 -2.55732716146E+02  3.07575290228E+02  1.25000000000E+02 0.00000000000E+00  1.
        3    1    3    3  502    0  3.67794663049E+01  2.15068692524E+01  1.59879246968E+01  4.55070137762E+01  0.00000000000E+00 0.00000000000E+00  1.
       -3    1    3    3    0  502 -4.13283855830E+00  9.03525726767E+01 -6.24629231274E+01  1.09919445548E+02  1.34869915235E-06 0.00000000000E+00  1.
</event>
<event>
 6  51   1.0000000E+00   1.2500000E+02   7.8125000E-03   1.2380865E-01
       21   -1    0    0  503  504  0.00000000000E+00  0.00000000000E+00  3.48158646137E+02  3.48158646137E+02  0.00000000000E+00 0.00000000000E+00  1.
       21   -1    0    0  504  503  0.00000000000E+00  0.00000000000E+00 -1.19071370025E+02  1.19071370025E+02  0.00000000000E+00 0.00000000000E+00  1.
       23    2    1    2    0    0  6.25349670680E+01 -1.10084386989E+02 -2.64090513535E+01  1.55890060946E+02  8.70349282960E+01 0.00000000000E+00  1.
       25    1    1    2    0    0 -6.25349670680E+01  1.10084386989E+02  2.55496327466E+02  3.11339955215E+02  1.25000000000E+02 0.00000000000E+00  1.
       11    1    3    3    0    0  7.52563822608E+01 -7.86376296677E+01 -4.43276292274E+01  1.17525906012E+02  5.10995927942E-04 0.00000000000E+00  1.
      -11    1    3    3    0    0 -1.27214151929E+01 -3.14467573217E+01  1.79185778739E+01  3.83641549346E+01  5.11000655640E-04 0.00000000000E+00  1.
</event>
<event>
 6  51   1.0000000E+00   1.2500000E+02   7.8125000E-03   1.2380865E-01
       21   -1    0    0  503  504  0.00000000000E+00  0.00000000000E+00  1.11205498511E+03  1.11205498511E+03  0.00000000000E+00 0.00000000000E+00  1.
       21   -1    0    0  504  503  0.00000000000E+00  0.00000000000E+00 -2.13735109388E+01  2.13735109388E+01  0.00000000000E+00 0.00000000000E+00  1.
       23    2    1    2    0    0 -5.71778158881E+01  9.34540460125E+01  5.17519830267E+02  5.36651962170E+02  9.03636676723E+01 0.00000000000E+00  1.
       25    1    1    2    0    0  5.71778158881E+01 -9.34540460125E+01  5.73161643905E+02  5.96776533880E+02  1.25000000000E+02 0.00000000000E+00  1.
       14    1    3    3    0    0 -7.00690890632E+01  5.94620679205E+01  4.56210595294E+02  4.65374603972E+02  7.62939453125E-06 0.00000000000E+00  1.
      -14    1    3    3    0    0  1.28912731751E+01  3.39919780921E+01  6.13092349734E+01  7.12773581981E+01  2.33601545599E-06 0.00000000000E+00  1.
</event>
<event>
 6  51   1.0000000E+00   1.2500000E+02   7.8125000E-03   1.2380865E-01
       21   -1    0    0  503  504  0.00000000000E+00  0.00000000000E+00  2.53555559296E+02  2.53555559296E+02  0.00000000000E+00 0.00000000000E+00  1.
       21   -1    0    0  504  503  0.00000000000E+00  0.00000000000E+00 -1.93550618480E+02  1.93550618480E+02  0.00000000000E+00 0.00000000000E+00  1.
       23    2    1    2    0    0  1.52967237272E+02 -5.18623882477E+01  1.33325022790E+02  2.30104985581E+02  9.53103336161E+01 0.00000000000E+00  1.
       25    1    1    2    0    0 -1.52967237272E+02  5.18623882477E+01 -7.33200819742E+01  2.17001192195E+02  1.25000000000E+02 0.00000000000E+00  1.
        4    1    3    3  502    0  8.92980383687E+01  1.69763500029E+01  8.56729305484E+01  1.24915222330E+02  1.27500000000E+00 0.00000000000E+00  1.
       -4    1    3    3    0  502  6.36691989034E+01 -6.88387382506E+01  4.76520922414E+01  1.05189763252E+02  1.27500000000E+00 0.00000000000E+00  1.
</event>
<event>
 6  51   1.0000000E+00   1.2500000E+02   7.8125000E-03   1.2380865E-01
       21   -1    0    0  503  504  0.00000000000E+00  0.00000000000E+00  1.27355414717E+03  1.27355414717E+03  0.00000000000E+00 0.00000000000E+00  1.
       21   -1    0    0  504  503  0.00000000000E+00  0.00000000000E+00 -2.78282705357E+01  2.78282705357E+01  0.00000000000E+00 0.00000000000E+00  1.
       23    2    1    2    0    0  5.90883860555E+01 -1.05007062531E+02  2.80274599106E+02  3.20444555336E+02  9.80456097582E+01 0.00000000000E+00  1.
       25    1    1    2    0    0 -5.90883860555E+01  1.05007062531E+02  9.65451277525E+02  9.80937862365E+02  1.25000000000E+02 0.00000000000E+00  1.
        1    1    3    3  502    0 -1.08580729912E+01 -7.96291588296E+01  1.59160827237E+02  1.78299942826E+02  3.81469726562E-06 0.00000000000E+00  1.
       -1    1    3    3    0  502  6.99464590468E+01 -2.53779037013E+01  1.21113771868E+02  1.42144612510E+02  3.81469726562E-06 0.00000000000E+00  1.
</event>
<event>
 6  51   1.0000000E+00   1.2500000E+02   7.8125000E-03   1.2380865E-01
       21   -1    0    0  503  504  0.00000000000E+00  0.00000000000E+00  5.88429136965E+01  5.88429136965E+01  0.00000000000E+00 0.00000000000E+00  1.
       21   -1    0    0  504  503  0.00000000000E+00  0.00000000000E+00 -5.21281652829E+02  5.21281652829E+02  0.00000000000E+00 0.00000000000E+00  1.
       23    2    1    2    0    0  9.31632546712E-01 -3.11995318383E+01 -4.13612947479E+00  1.04056755447E+02  9.91787379480E+01 0.00000000000E+00  1.
       25    1    1    2    0    0 -9.31632546712E-01  3.11995318383E+01 -4.58302609657E+02  4.76067811078E+02  1.25000000000E+02 0.00000000000E+00  1.
        1    1    3    3  502    0 -1.13283819846E+01 -6.57749323858E+01 -7.76266148816E+00  6.71932502721E+01  1.93324980023E-06 0.00000000000E+00  1.
       -1    1    3    3    0  502  1.22600145313E+01  3.45754005475E+01  3.62653201337E+00  3.68635051748E+01  1.36506348736E-06 0.00000000000E+00  1.
</event>
<event>
 6  51   1.0000000E+00   1.2500000E+02   7.8125000E-03   1.2380865E-01
       21   -1    0    0  503  504  0.00000000000E+00  0.00000000000E+00  1.64709001641E+02  1.64709001641E+02  0.00000000000E+00 0.00000000000E+00  1.
       21   -1    0    0  504  503  0.00000000000E+00  0.00000000000E+00 -1.07654225198E+02  1.07654225198E+02  0.00000000000E+00 0.00000000000E+00  1.
       23    2    1    2    0    0  3.95773169046E+00  1.80112276724E+01 -5.02952224739E+01  1.06564884778E+02  9.21216440461E+01 0.00000000000E+00  1.
       25    1    1    2    0    0 -3.95773169046E+00 -1.80112276724E+01  1.07349998917E+02  1.65798342060E+02  1.25000000000E+02 0.00000000000E+00  1.
        2    1    3    3  502    0 -3.54409645043E+01 -1.54849566706E+00  5.08937454248E+00  3.58379901370E+01  8.84079752814E-07 0.00000000000E+00  1.
       -2    1    3    3    0  502  3.93986961947E+01  1.95597233395E+01 -5.53845970164E+01  7.07268946415E+01  6.74349576174E-07 0.00000000000E+00  1.
</event>
<event>
 6  51   1.0000000E+00   1.2500000E+02   7.8125000E-03   1.2380865E-01
       21   -1    0    0  503  504  0.00000000000E+00  0.00000000000E+00  2.16777874501E+02  2.16777874501E+02  0.00000000000E+00 0.00000000000E+00  1.
       21   -1    0    0  504  503  0.00000000000E+00  0.00000000000E+00 -2.54042565261E+02  2.54042565261E+02  0.00000000000E+00 0.00000000000E+00  1.
       23    2    1    2    0    0  1.74428215139E+02 -1.36114689445E+00  9.57322338094E+01  2.18352150858E+02  8.99218896415E+01 0.00000000000E+00  1.
       25    1    1    2    0    0 -1.74428215139E+02  1.36114689445E+00 -1.32996924569E+02  2.52468288904E+02  1.25000000000E+02 0.00000000000E+00  1.
       13    1    3    3    0    0  8.77827049391E+01  3.12226968606E+01  8.32494131621E+01  1.24944531859E+02  1.05659999995E-01 0.00000000000E+00  1.
      -13    1    3    3    0    0  8.66455101994E+01 -3.25838437551E+01  1.24828206473E+01  9.34076189983E+01  1.05660000002E-01 0.00000000000E+00  1.
</event>
<event>
 6  51   1.0000000E+00   1.2500000E+02   7.8125000E-03   1.2380865E-01
       21   -1    0    0  503  504  0.00000000000E+00  0.00000000000E+00  5.86266648723E+02  5.86266648723E+02  0.00000000000E+00 0.00000000000E+00  1.
       21   -1    0    0  504  503  0.00000000000E+00  0.00000000000E+00 -3.19034910728E+01  3.19034910728E+01  0.00000000000E+00 0.00000000000E+00  1.
       23    2    1    2    0    0 -2.48847373105E+01  9.51208892546E+00  7.38330451023E+01  1.20933858887E+02  9.19997265729E+01 0.00000000000E+00  1.
       25    1    1    2    0    0  2.48847373105E+01 -9.51208892546E+00  4.80530112548E+02  4.97236280909E+02  1.25000000000E+02 0.00000000000E+00  1.
        5    1    3    3  502    0  2.13547669430E+01 -2.50737878043E+01  4.56874764371E+01  5.65210483734E+01  4.75000000000E+00 0.00000000000E+00  1.
       -5    1    3    3    0  502 -4.62395042535E+01  3.45858767297E+01  2.81455686653E+01  6.44128105136E+01  4.75000000000E+00 0.00000000000E+00  1.
</event>
<event>
 6  51   1.0000000E+00   1.2500000E+02   7.8125000E-03   1.2380865E-01
       21   -1    0    0  503  504  0.00000000000E+00  0.00000000000E+00  4.90688778304E+01  4.90688778304E+01  0.00000000000E+00 0.00000000000E+00  1.
       21   -1    0    0  504  503  0.00000000000E+00  0.00000000000E+00 -6.75736908248E+02  6.75736908248E+02  0.00000000000E+00 0.00000000000E+00  1.
       23    2    1    2    0    0 -7.58520014613E+00 -5.52110897767E+01 -2.72060955732E+01  1.09919283524E+02  9.07539396312E+01 0.00000000000E+00  1.
       25    1    1    2    0    0  7.58520014613E+00  5.52110897767E+01 -5.99461934845E+02  6.14886502554E+02  1.25000000000E+02 0.00000000000E+00  1.
        2    1    3    3  502    0 -1.84020977364E+01  1.10081993393E+01  1.88384204649E+01  2.85430155976E+01  1.32745846816E-06 0.00000000000E+00  1.
       -2    1    3    3    0  502  1.08168975903E+01 -6.62192891160E+01 -4.60445160381E+01  8.13762679268E+01  1.16800772800E-06 0.00000000000E+00  1.
</event>
<event>
 6  51   1.0000000E+00   1.2500000E+02   7.8125000E-03   1.2380865E-01
       21   -1    0    0  503  504  0.00000000000E+00  0.00000000000E+00  1.43002497413E+03  1.43002497413E+03  0.00000000000E+00 0.00000000000E+00  1.
       21   -1    0    0  504  503  0.00000000000E+00  0.00000000000E+00 -2.55702247955E+01  2.55702247955E+01  0.00000000000E+00 0.00000000000E+00  1.
       23    2    1    2    0    0 -9.38396094269E+01 -1.13548156326E+02  4.48535186776E+02  4.80348426983E+02  8.86100526248E+01 0.00000000000E+00  1.
       25    1    1    2    0    0  9.38396094269E+01  1.13548156326E+02  9.55919562554E+02  9.75246771938E+02  1.25000000000E+02 0.00000000000E+00  1.
        5    1    3    3  502    0 -6.22975420627E+01 -1.25275693045E+01  2.07413441075E+02  2.16981155353E+02  4.75000000000E+00 0.00000000000E+00  1.
       -5    1    3    3    0  502 -3.15420673642E+01 -1.01020587022E+02  2.41121745701E+02  2.63367271630E+02  4.75000000000E+00 0.00000000000E+00  1.
</event>
<event>
 6  51   1.0000000E+00   1.2500000E+02   7.8125000E-03   1.2380865E-01
       21   -1    0    0  503  504  0.00000000000E+00  0.00000000000E+00  3.44211044668E+01  3.44211044668E+01  0.00000000000E+00 0.00000000000E+00  1.
       21   -1    0    0  504  503  0.00000000000E+00  0.00000000000E+00 -6.86357750333E+02  6.86357750333E+02  0.00000000000E+00 0.00000000000E+00  1.
       23    2    1    2    0    0 -5.46920183631E+01 -8.54727446863E+01 -2.14192842443E+02  2.54365471210E+02  9.23385739166E+01 0.00000000000E+00  1.
       25    1    1    2    0    0  5.46920183631E+01  8.54727446863E+01 -4.37743803423E+02  4.66413383590E+02  1.25000000000E+02 0.00000000000E+00  1.
       11    1    3    3    0    0 -6.11257086675E-01  1.18418741384E+01  1.18275693772E+00  1.19164815516E+01  5.10999557584E-04 0.00000000000E+00  1.
      -11    1    3    3    0    0 -5.40807612764E+01 -9.73146188247E+01 -2.15375599381E+02  2.42448989658E+02  5.10991478305E-04 0.00000000000E+00  1.
</event>
<event>
 6  51   1.0000000E+00   1.2500000E+02   7.8125000E-03   1.2380865E-01
       21   -1    0    0  503  504  0.00000000000E+00  0.00000000000E+00  2.35622182190E+02  2.35622182190E+02  0.00000000000E+00 0.00000000000E+00  1.
       21   -1    0    0  504  503  0.00000000000E+00  0.00000000000E+00 -1.59819725071E+02  1.59819725071E+02  0.00000000000E+00 0.00000000000E+00  1.
       23    2    1    2    0    0  1.11495782533E+02  9.64368388123E+01 -2.77223252687E+01  1.76184629227E+02  9.24181954739E+01 0.00000000000E+00  1.
       25    1    1    2    0    0 -1.11495782533E+02 -9.64368388123E+01  1.03524782388E+02  2.19257278035E+02  1.25000000000E+02 0.00000000000E+00  1.
        2    1    3    3  502    0  4.54835787550E+00  4.30618280939E+01 -3.60844427814E+01  5.63657308033E+01  9.53674316406E-07 0.00000000000E+00  1.
       -2    1    3    3    0  502  1.06947424658E+02  5.33750107183E+01  8.36211751262E+00  1.19818898423E+02  2.55397382803E-06 0.00000000000E+00  1.
</event>
<event>
 6  51   1.0000000E+00   1.2500000E+02   7.8125000E-03   1.2380865E-01
       21   -1    0    0  503  504  0.00000000000E+00  0.00000000000E+00  2.77853379772E+03  2.77853379772E+03  0.00000000000E+00 0.00000000000E+00  1.
       21   -1    0    0  504  503  0.00000000000E+00  0.00000000000E+00 -2.17567356506E+01  2.17567356506E+01  0.00000000000E+00 0.00000000000E+00  1.
       23    2    1    2    0    0  3.27597647413E+01 -1.56175321541E+02  2.20183510800E+03  2.20948641555E+03  9.10408943575E+01 0.00000000000E+00  1.
       25    1    1    2    0    0 -3.27597647413E+01  1.56175321541E+02  5.54941954070E+02  5.90804117819E+02  1.25000000000E+02 0.00000000000E+00  1.
       15    1    3    3    0    0  5.06816461620E+01 -1.15382997027E+02  1.18707845263E+03  1.19375050784E+03  1.77679999982E+00 0.00000000000E+00  1.
      -15    1    3    3    0    0 -1.79218814208E+01 -4.07923245139E+01  1.01475665537E+03  1.01573590771E+03  1.77680000005E+00 0.00000000000E+00  1.
</event>
<event>
 6  51   1.0000000E+00   1.2500000E+02   7.8125000E-03   1.2380865E-01
       21   -1    0    0  503  504  0.00000000000E+00  0.00000000000E+00  5.93021473508E+02  5.93021473508E+02  0.00000000000E+00 0.00000000000E+00  1.
       21   -1    0    0  504  503  0.00000000000E+00  0.00000000000E+00 -5.45195220340E+01  5.45195220340E+01  0.00000000000E+00 0.00000000000E+00  1.
       23    2    1    2    0    0  6.95514293601E+01 -2.84263900316E+01  4.73143211794E+02  4.87721641806E+02  9.14463779622E+01 0.00000000000E+00  1.
       25    1    1    2    0    0 -6.95514293601E+01  2.84263900316E+01  6.53587396803E+01  1.59819353737E+02  1.25000000000E+02 0.00000000000E+00  1.
       11    1    3    3    0    0  3.98964631512E+01  2.94651364752E+01  2.66743349634E+02  2.71315197904E+02  5.10984358804E-04 0.00000000000E+00  1.
      -11    1    3    3    0    0  2.96549662089E+01 -5.78915265067E+01  2.06399862160E+02  2.16406443902E+02  5.11012836212E-04 0.00000000000E+00  1.
</event>
<event>
 6  51   1.0000000E+00   1.2500000E+02   7.8125000E-03   1.2380865E-01
       21   -1    0    0  503  504  0.00000000000E+00  0.00000000000E+00  9.80675222604E+01  9.80675222604E+01  0.00000000000E+00 0.00000000000E+00  1.
       21   -1    0    0  504  503  0.00000000000E+00  0.00000000000E+00 -4.78563209874E+02  4.78563209874E+02  0.00000000000E+00 0.00000000000E+00  1.
       23    2    1    2    0    0 -4.73389460564E+01  1.71492810636E+02 -1.29635428689E+02  2.44656893675E+02  1.06774956511E+02 0.00000000000E+00  1.
       25    1    1    2    0    0  4.73389460564E+01 -1.71492810636E+02 -2.50860258925E+02  3.31973838459E+02  1.25000000000E+02 0.00000000000E+00  1.
        3    1    3    3  502    0  3.36315992401E+00  8.21717920189E+01 -3.93941999302E+00  8.23348849404E+01  2.39607706574E-06 0.00000000000E+00  1.
       -3    1    3    3    0  502 -5.07021059804E+01  8.93210186171E+01 -1.25696008696E+02  1.62322008735E+02  0.00000000000E+00 0.00000000000E+00  1.
</event>
<event>
 6  51   1.0000000E+00   1.2500000E+02   7.8125000E-03   1.2380865E-01
       21   -1    0    0  503  504  0.00000000000E+00  0.00000000000E+00  6.72584738333E+02  6.72584738333E+02  0.00000000000E+00 0.00000000000E+00  1.
       21   -1    0    0  504  503  0.00000000000E+00  0.00000000000E+00 -7.89174557504E+01  7.89174557504E+01  0.00000000000E+00 0.00000000000E+00  1.
       23    2    1    2    0    0 -6.35907248825E+01 -1.56392120690E+02  2.80256585398E+02  3.74204512120E+02  1.81612189919E+02 0.00000000000E+00  1.
       25    1    1    2    0    0  6.35907248825E+01  1.56392120690E+02  3.13410697184E+02  3.77297681963E+02  1.25000000000E+02 0.00000000000E+00  1.
        2    1    3    3  502    0  5.60912939788E+01 -7.33864053258E+01  5.99933025097E+01  1.10140792138E+02  9.53674316406E-07 0.00000000000E+00  1.
       -2    1    3    3    0  502 -1.19682018861E+02 -8.30057153644E+01  2.20263282889E+02  2.64063719982E+02  5.39479660939E-06 0.00000000000E+00  1.
</event>
<event>
 6  51   1.0000000E+00   1.2500000E+02   7.8125000E-03   1.2380865E-01
       21   -1    0    0  503  504  0.00000000000E+00  0.00000000000E+00  1.74963076809E+02  1.74963076809E+02  0.00000000000E+00 0.00000000000E+00  1.
       21   -1    0    0  504  503  0.00000000000E+00  0.00000000000E+00 -1.52805812910E+02  1.52805812910E+02  0.00000000000E+00 0.00000000000E+00  1.
       23    2    1    2    0    0  2.64157328161E+01  9.38622354471E+01 -6.29497575456E+01  1.47835248388E+02  9.15678901564E+01 0.00000000000E+00  1.
       25    1    1    2    0    0 -2.64157328161E+01 -9.38622354471E+01  8.51070214449E+01  1.79933641331E+02  1.25000000000E+02 0.00000000000E+00  1.
        2    1    3    3  502    0  2.23611672248E+01  8.84704383040E-01  1.45779032072E+01  2.67080467915E+01  8.76005795997E-07 0.00000000000E+00  1.
       -2    1    3    3    0  502  4.05456559133E+00  9.29775310641E+01 -7.75276607527E+01  1.21127201597E+02  2.52318507296E-06 0.00000000000E+00  1.
</event>
<event>
 6  51   1.0000000E+00   1.2500000E+02   7.8125000E-03   1.2380865E-01
       21   -1    0    0  503  504  0.00000000000E+00  0.00000000000E+00  4.43748202231E+02  4.43748202231E+02  0.00000000000E+00 0.00000000000E+00  1.
       21   -1    0    0  504  503  0.00000000000E+00  0.00000000000E+00 -4.87847127593E+01  4.87847127593E+01  0.00000000000E+00 0.00000000000E+00  1.
       23    2    1    2    0    0  2.07748743124E+00  8.06358435172E+01  8.26444527068E+01  1.46592694808E+02  9.02931746825E+01 0.00000000000E+00  1.
       25    1    1    2    0    0 -2.07748743124E+00 -8.06358435172E+01  3.12319036765E+02  3.45940220182E+02  1.25000000000E+02 0.00000000000E+00  1.
       14    1    3    3    0    0 -3.10965337058E+01  5.75734692732E+01  8.36187416638E+01  1.06178117944E+02  1.34869915235E-06 0.00000000000E+00  1.
      -14    1    3    3    0    0  3.31740211370E+01  2.30623742440E+01 -9.74288957001E-01  4.04145768646E+01  7.26192768276E-07 0.00000000000E+00  1.
</event>
<event>
 6  51   1.0000000E+00   1.2500000E+02   7.8125000E-03   1.2380865E-01
       21   -1    0    0  503  504  0.00000000000E+00  0.00000000000E+00  2.54110724528E+02  2.54110724528E+02  0.00000000000E+00 0.00000000000E+00  1.
       21   -1    0    0  504  503  0.00000000000E+00  0.00000000000E+00 -1.12114902369E+02  1.12114902369E+02  0.00000000000E+00 0.00000000000E+00  1.
       23    2    1    2    0    0 -4.62566832259E+01  2.39369071940E+01 -6.18666610822E+01  1.21485829679E+02  9.06568628969E+01 0.00000000000E+00  1.
       25    1    1    2    0    0  4.62566832259E+01 -2.39369071940E+01  2.03862483241E+02  2.44739797218E+02  1.25000000000E+02 0.00000000000E+00  1.
        5    1    3    3  502    0 -5.41854320318E+01 -1.18496097665E+01 -8.12164870365E+00  5.62583147077E+01  4.75000000000E+00 0.00000000000E+00  1.
       -5    1    3    3    0  502  7.92874880585E+00  3.57865169604E+01 -5.37450123786E+01  6.52275149715E+01  4.75000000000E+00 0.00000000000E+00  1.
</event>
<event>
 6  51   1.0000000E+00   1.2500000E+02   7.8125000E-03   1.2380865E-01
       21   -1    0    0  503  504  0.00000000000E+00  0.00000000000E+00  7.84296002232E+01  7.84296002232E+01  0.00000000000E+00 0.00000000000E+00  1.
       21   -1    0    0  504  503  0.00000000000E+00  0.00000000000E+00 -4.47184621942E+02  4.47184621942E+02  0.00000000000E+00 0.00000000000E+00  1.
       23    2    1    2    0    0 -5.22594730353E+01  1.43620638889E+02 -2.13672976999E+02  2.74549726405E+02  7.97713653674E+01 0.00000000000E+00  1.
       25    1    1    2    0    0  5.22594730353E+01 -1.43620638889E+02 -1.55082044720E+02  2.51064495760E+02  1.25000000000E+02 0.00000000000E+00  1.
        5    1    3    3  502    0  7.25992451563E+00  2.63659164123E+01 -8.92113713023E+01  9.34296490514E+01  4.75000000000E+00 0.00000000000E+00  1.
       -5    1    3    3    0  502 -5.95193975510E+01  1.17254722477E+02 -1.24461605696E+02  1.81120077353E+02  4.75000000000E+00 0.00000000000E+00  1.
</event>
<event>
 6  51   1.0000000E+00   1.2500000E+02   7.8125000E-03   1.2380865E-01
       21   -1    0    0  503  504  0.00000000000E+00  0.00000000000E+00  8.80208799563E+02  8.80208799563E+02  0.00000000000E+00 0.00000000000E+00  1.
       21   -1    0    0  504  503  0.00000000000E+00  0.00000000000E+00 -4.55754592765E+01  4.55754592765E+01  0.00000000000E+00 0.00000000000E+00  1.
       23    2    1    2    0    0  5.44690522654E+01  4.66688504180E+01  4.96191832455E+01  1.27650757470E+02  9.32083326887E+01 0.00000000000E+00  1.
       25    1    1    2    0    0 -5.44690522654E+01 -4.66688504180E+01  7.85014157041E+02  7.98133501370E+02  1.25000000000E+02 0.00000000000E+00  1.
        1    1    3    3  502    0  7.37442168433E+01  8.71270170229E+00  3.85398431125E+01  8.36626571173E+01  2.38418579102E-06 0.00000000000E+00  1.
       -1    1    3    3    0  502 -1.92751645778E+01  3.79561487157E+01  1.10793401330E+01  4.39881003524E+01  1.94058663799E-06 0.00000000000E+00  1.
</event>
<event>
 6  51   1.0000000E+00   1.2500000E+02   7.8125000E-03   1.2380865E-01
       21   -1    0    0  503  504  0.00000000000E+00  0.00000000000E+00  2.31523755791E+02  2.31523755791E+02  0.00000000000E+00 0.00000000000E+00  1.
       21   -1    0    0  504  503  0.00000000000E+00  0.00000000000E+00 -1.56405490532E+02  1.56405490532E+02  0.00000000000E+00 0.00000000000E+00  1.
       23    2    1    2    0    0 -1.12664615630E+02 -1.05712614993E+02  5.53082916810E+01  1.88214680914E+02  9.21807268326E+01 0.00000000000E+00  1.
       25    1    1    2    0    0  1.12664615630E+02  1.05712614993E+02  1.98099735780E+01  1.99714565410E+02  1.25000000000E+02 0.00000000000E+00  1.
        3    1    3    3  502    0 -6.27323940494E+01 -6.84823534627E+00 -2.74426209295E+00  6.31647256383E+01  8.62209566920E-07 0.00000000000E+00  1.
       -3    1    3    3    0  502 -4.99322215802E+01 -9.88643796464E+01  5.80525537740E+01  1.25049955276E+02  1.16800772800E-06 0.00000000000E+00  1.
</event>
<event>
 6  51   1.0000000E+00   1.2500000E+02   7.8125000E-03   1.2380865E-01
       21   -1    0    0  503  504  0.00000000000E+00  0.00000000000E+00  1.13363858714E+02  1.13363858714E+02  0.00000000000E+00 0.00000000000E+00  1.
       21   -1    0    0  504  503  0.00000000000E+00  0.00000000000E+00 -5.56189006745E+02  5.56189006745E+02  0.00000000000E+00 0.00000000000E+00  1.
       23    2    1    2    0    0 -1.95034188214E+02  1.13656988178E+02 -1.95231845768E+02  3.11944575762E+02  9.07617717503E+01 0.00000000000E+00  1.
       25    1    1    2    0    0  1.95034188214E+02 -1.13656988178E+02 -2.47593302263E+02  3.57608289697E+02  1.25000000000E+02 0.00000000000E+00  1.
        2    1    3    3  502    0 -1.06892436893E+02  1.09276764176E+02 -1.03206623941E+02  1.84442434052E+02  3.81469726562E-06 0.00000000000E+00  1.
       -2    1    3    3    0  502 -8.81417513215E+01  4.38022400180E+00 -9.20252218269E+01  1.27502141710E+02  1.90734863281E-06 0.00000000000E+00  1.
</event>
<event>
 6  51   1.0000000E+00   1.2500000E+02   7.8125000E-03   1.2380865E-01
       21   -1    0    0  503  504  0.00000000000E+00  0.00000000000E+00  1.91200925356E+02  1.91200925356E+02  0.00000000000E+00 0.00000000000E+00  1.
       21   -1    0    0  504  503  0.00000000000E+00  0.00000000000E+00 -3.29214762152E+02  3.29214762152E+02  0.00000000000E+00 0.00000000000E+00  1.
       23    2    1    2    0    0 -3.59908623944E+01 -1.05165754133E+02 -2.69728899313E+02  3.07509521059E+02  9.72278170027E+01 0.00000000000E+00  1.
       25    1    1    2    0    0  3.59908623944E+01  1.05165754133E+02  1.31715062517E+02  2.12906166449E+02  1.25000000000E+02 0.00000000000E+00  1.
        1    1    3    3  502    0  1.97415831217E+01 -8.28191709607E+01 -1.85110196196E+02  2.03751147036E+02  2.69739830470E-06 0.00000000000E+00  1.
       -1    1    3    3    0  502 -5.57324455162E+01 -2.23465831720E+01 -8.46187031165E+01  1.03758374023E+02  9.53674316406E-07 0.00000000000E+00  1.
</event>
<event>
 6  51   1.0000000E+00   1.2500000E+02   7.8125000E-03   1.2380865E-01
       21   -1    0    0  503  504  0.00000000000E+00  0.00000000000E+00  1.55915003110E+02  1.55915003110E+02  0.00000000000E+00 0.00000000000E+00  1.
       21   -1    0    0  504  503  0.00000000000E+00  0.00000000000E+00 -4.29318458152E+02  4.29318458152E+02  0.00000000000E+00 0.00000000000E+00  1.
       23    2    1    2    0    0 -2.17127476097E+02  5.90743594552E+01 -5.90945175303E+01  2.50289523388E+02  9.22960600154E+01 0.00000000000E+00  1.
       25    1    1    2    0    0  2.17127476097E+02 -5.90743594552E+01 -2.14308937511E+02  3.34943937874E+02  1.25000000000E+02 0.00000000000E+00  1.
       11    1    3    3    0    0 -9.83288488576E+01  1.91414353945E+01  1.99126731131E+01  1.02134576013E+02  5.10998208367E-04 0.00000000000E+00  1.
      -11    1    3    3    0    0 -1.18798627239E+02  3.99329240607E+01 -7.90071906434E+01  1.48154947374E+02  5.11003937192E-04 0.00000000000E+00  1.
</event>
<event>
 6  51   1.0000000E+00   1.2500000E+02   7.8125000E-03   1.2380865E-01
       21   -1    0    0  503  504  0.00000000000E+00  0.00000000000E+00  1.67350951683E+02  1.67350951683E+02  0.00000000000E+00 0.00000000000E+00  1.
       21   -1    0    0  504  503  0.00000000000E+00  0.00000000000E+00 -6.90267753933E+01  6.90267753933E+01  0.00000000000E+00 0.00000000000E+00  1.
       23    2    1    2    0    0 -1.23241462423E+01  5.94151008731E+01  6.03054758470E+01  9.23205843315E+01  3.47030413916E+01 0.00000000000E+00  1.
       25    1    1    2    0    0  1.23241462423E+01 -5.94151008731E+01  3.80187004424E+01  1.44057142744E+02  1.25000000000E+02 0.00000000000E+00  1.
        5    1    3    3  502    0  1.06996607217E+01  2.97930291068E+01  2.97796249800E+01  4.37206574386E+01  4.75000000000E+00 0.00000000000E+00  1.
       -5    1    3    3    0  502 -2.30238069640E+01  2.96220717663E+01  3.05258508670E+01  4.85999268929E+01  4.75000000000E+00 0.00000000000E+00  1.
</event>
<event>
 6  51   1.0000000E+00   1.2500000E+02   7.8125000E-03   1.2380865E-01
       21   -1    0    0  503  504  0.00000000000E+00  0.00000000000E+00  4.00567678033E+01  4.00567678033E+01  0.00000000000E+00 0.00000000000E+00  1.
       21   -1    0    0  504  503  0.00000000000E+00  0.00000000000E+00 -1.13540545851E+03  1.13540545851E+03  0.00000000000E+00 0.00000000000E+00  1.
       23    2    1    2    0    0 -8.96389666711E+01  5.33238181781E+01 -9.42329374805E+02  9.52037776064E+02  8.66758472773E+01 0.00000000000E+00  1.
       25    1    1    2    0    0  8.96389666711E+01 -5.33238181781E+01 -1.53019315907E+02  2.23424450254E+02  1.25000000000E+02 0.00000000000E+00  1.
        1    1    3    3  502    0 -5.42673396839E+01  3.03300709808E+01 -8.25265946228E+02  8.27604216619E+02  1.86881236479E-05 0.00000000000E+00  1.
       -1    1    3    3    0  502 -3.53716269872E+01  2.29937471973E+01 -1.17063428577E+02  1.24433559445E+02  1.34869915235E-06 0.00000000000E+00  1.
</event>
<event>
 6  51   1.0000000E+00   1.2500000E+02   7.8125000E-03   1.2380865E-01
       21   -1    0    0  503  504  0.00000000000E+00  0.00000000000E+00  6.09711776406E+02  6.09711776406E+02  0.00000000000E+00 0.00000000000E+00  1.
       21   -1    0    0  504  503  0.00000000000E+00  0.00000000000E+00 -3.82858016152E+01  3.82858016152E+01  0.00000000000E+00 0.00000000000E+00  1.
       23    2    1    2    0    0 -1.02615412295E+02  2.76984191970E+01  2.80972166936E+02  3.14402704314E+02  9.27716369397E+01 0.00000000000E+00  1.
       25    1    1    2    0    0  1.02615412295E+02 -2.76984191970E+01  2.90453807855E+02  3.33594873707E+02  1.25000000000E+02 0.00000000000E+00  1.
        1    1    3    3  502    0 -4.27086818148E+01  4.64554568883E+01  6.97955261148E+01  9.40933389922E+01  9.53674316406E-07 0.00000000000E+00  1.
       -1    1    3    3    0  502 -5.99067304807E+01 -1.87570376913E+01  2.11176640821E+02  2.20309365321E+02  3.81469726562E-06 0.00000000000E+00  1.
</event>
<event>
 6  51   1.0000000E+00   1.2500000E+02   7.8125000E-03   1.2380865E-01
       21   -1    0    0  503  504  0.00000000000E+00  0.00000000000E+00  8.13850619174E+01  8.13850619174E+01  0.00000000000E+00 0.00000000000E+00  1.
       21   -1    0    0  504  503  0.00000000000E+00  0.00000000000E+00 -4.10594767345E+02  4.10594767345E+02  0.00000000000E+00 0.00000000000E+00  1.
       23    2    1    2    0    0 -9.64453845762E+00  3.78903181572E+01  2.39803186793E+01  1.15287797941E+02  1.05771108239E+02 0.00000000000E+00  1.
       25    1    1    2    0    0  9.64453845762E+00 -3.78903181572E+01 -3.53190024107E+02  3.76692031321E+02  1.25000000000E+02 0.00000000000E+00  1.
       15    1    3    3    0    0 -3.60013560538E+00  5.47648658003E+01 -2.70204029201E+01  6.11997605772E+01  1.77680000000E+00 0.00000000000E+00  1.
      -15    1    3    3    0    0 -6.04440285224E+00 -1.68745476431E+01  5.10007215994E+01  5.40880373641E+01  1.77680000000E+00 0.00000000000E+00  1.
</event>
<event>
 6  51   1.0000000E+00   1.2500000E+02   7.8125000E-03   1.2380865E-01
       21   -1    0    0  503  504  0.00000000000E+00  0.00000000000E+00  6.29568809306E+01  6.29568809306E+01  0.00000000000E+00 0.00000000000E+00  1.
       21   -1    0    0  504  503  0.00000000000E+00  0.00000000000E+00 -3.72280841559E+02  3.72280841559E+02  0.00000000000E+00 0.00000000000E+00  1.
       23    2    1    2    0    0  6.47369507178E+01  1.78260987933E+01 -2.78194304578E+01  1.19994256113E+02  9.54780508951E+01 0.00000000000E+00  1.
       25    1    1    2    0    0 -6.47369507178E+01 -1.78260987933E+01 -2.81504530171E+02  3.15243466377E+02  1.25000000000E+02 0.00000000000E+00  1.
        4    1    3    3  502    0  7.42789311913E+01 -1.82492948888E+01 -5.96477096620E+00  7.67307011603E+01  1.27500000000E+00 0.00000000000E+00  1.
       -4    1    3    3    0  502 -9.54198047350E+00  3.60753936821E+01 -2.18546594916E+01  4.32635549530E+01  1.27500000000E+00 0.00000000000E+00  1.
</event>
<event>
 6  51   1.0000000E+00   1.2500000E+02   7.8125000E-03   1.2380865E-01
       21   -1    0    0  503  504  0.00000000000E+00  0.00000000000E+00  4.06570227148E+02  4.06570227148E+02  0.00000000000E+00 0.00000000000E+00  1.
       21   -1    0    0  504  503  0.00000000000E+00  0.00000000000E+00 -8.44438547521E+01  8.44438547521E+01  0.00000000000E+00 0.00000000000E+00  1.
       23    2    1    2    0    0 -1.20180101624E+02  1.60971008098E+01  2.68667653242E+02  3.08846005294E+02  9.22018091290E+01 0.00000000000E+00  1.
       25    1    1    2    0    0  1.20180101624E+02 -1.60971008098E+01  5.34587191546E+01  1.82168076607E+02  1.25000000000E+02 0.00000000000E+00  1.
        5    1    3    3  502    0 -1.66241950506E+01 -3.11230581591E+01  9.18786038035E+01  9.85355212456E+01  4.75000000000E+00 0.00000000000E+00  1.
       -5    1    3    3    0  502 -1.03555906574E+02  4.72201589689E+01  1.76789049438E+02  2.10310484048E+02  4.75000000000E+00 0.00000000000E+00  1.
</event>
<event>
 6  51   1.0000000E+00   1.2500000E+02   7.8125000E-03   1.2380865E-01
       21   -1    0    0  503  504  0.00000000000E+00  0.00000000000E+00  2.58342032448E+02  2.58342032448E+02  0.00000000000E+00 0.00000000000E+00  1.
       21   -1    0    0  504  503  0.00000000000E+00  0.00000000000E+00 -1.15433820955E+02  1.15433820955E+02  0.00000000000E+00 0.00000000000E+00  1.
       23    2    1    2    0    0  2.38561960580E+01  3.05835835016E+01 -7.49648374315E+01  1.19614213658E+02  8.47547024522E+01 0.00000000000E+00  1.
       25    1    1    2    0    0 -2.38561960580E+01 -3.05835835016E+01  2.17873048925E+02  2.54161639745E+02  1.25000000000E+02 0.00000000000E+00  1.
       14    1    3    3    0    0  2.61566907017E+01 -1.46033795553E+01 -6.73773359944E+01  7.37369416820E+01  1.65181236989E-06 0.00000000000E+00  1.
      -14    1    3    3    0    0 -2.30049464379E+00  4.51869630569E+01 -7.58750143703E+00  4.58772719761E+01  6.01977404258E-07 0.00000000000E+00  1.
</event>
<event>
 6  51   1.0000000E+00   1.2500000E+02   7.8125000E-03   1.2380865E-01
       21   -1    0    0  503  504  0.00000000000E+00  0.00000000000E+00  1.21352773175E+02  1.21352773175E+02  0.00000000000E+00 0.00000000000E+00  1.
       21   -1    0    0  504  503  0.00000000000E+00  0.00000000000E+00 -4.04776273387E+02  4.04776273387E+02  0.00000000000E+00 0.00000000000E+00  1.
       23    2    1    2    0    0  4.06983888690E+01  1.05221847966E+02 -3.22025906872E+02  3.53377369448E+02  9.19069333371E+01 0.00000000000E+00  1.
       25    1    1    2    0    0 -4.06983888690E+01 -1.05221847966E+02  3.86024066597E+01  1.72751677114E+02  1.25000000000E+02 0.00000000000E+00  1.
        1    1    3    3  502    0  2.20621029368E+01  6.02682399075E+01 -2.85249349122E+02  2.92380211885E+02  3.81469726562E-06 0.00000000000E+00  1.
       -1    1    3    3    0  502  1.86362859322E+01  4.49536080584E+01 -3.67765577501E+01  6.09971575630E+01  1.06624029994E-06 0.00000000000E+00  1.
</event>
<event>
 6  51   1.0000000E+00   1.2500000E+02   7.8125000E-03   1.2380865E-01
       21   -1    0    0  503  504  0.00000000000E+00  0.00000000000E+00  2.04965991679E+02  2.04965991679E+02  0.00000000000E+00 0.00000000000E+00  1.
       21   -1    0    0  504  503  0.00000000000E+00  0.00000000000E+00 -1.07625793883E+02  1.07625793883E+02  0.00000000000E+00 0.00000000000E+00  1.
       23    2    1    2    0    0 -6.14522062382E+01  5.61736242157E+01  1.05584826565E+02  1.62176282330E+02  9.06705092105E+01 0.00000000000E+00  1.
       25    1    1    2    0    0  6.14522062382E+01 -5.61736242157E+01 -8.24462876836E+00  1.50415503232E+02  1.25000000000E+02 0.00000000000E+00  1.
        3    1    3    3  502    0 -1.43593432897E+00  4.70917900689E+01  8.65841280092E+01  9.85723583080E+01  0.00000000000E+00 0.00000000000E+00  1.
       -3    1    3    3    0  502 -6.00162719093E+01  9.08183414675E+00  1.90006985557E+01  6.36039240217E+01  1.66893005371E-06 0.00000000000E+00  1.
</event>
<event>
 6  51   1.0000000E+00   1.2500000E+02   7.8125000E-03   1.2380865E-01
       21   -1    0    0  503  504  0.00000000000E+00  0.00000000000E+00  6.04771843773E+01  6.04771843773E+01  0.00000000000E+00 0.00000000000E+00  1.
       21   -1    0    0  504  503  0.00000000000E+00  0.00000000000E+00 -4.43641606831E+02  4.43641606831E+02  0.00000000000E+00 0.00000000000E+00  1.
       23    2    1    2    0    0  5.95117737803E+01  7.45834053324E+01 -7.28794474455E+01  1.56259478719E+02  1.00006376098E+02 0.00000000000E+00  1.
       25    1    1    2    0    0 -5.95117737803E+01 -7.45834053324E+01 -3.10284975008E+02  3.47859312489E+02  1.25000000000E+02 0.00000000000E+00  1.
       16    1    3    3    0    0  3.39913558186E+01 -9.93398785406E-01  1.53552641118E+01  3.73119719055E+01  5.84003863998E-07 0.00000000000E+00  1.
      -16    1    3    3    0    0  2.55204179617E+01  7.55768041178E+01 -8.82347115573E+01  1.18947506814E+02  2.86102294922E-06 0.00000000000E+00  1.
</event>
<event>
 6  51   1.0000000E+00   1.2500000E+02   7.8125000E-03   1.2380865E-01
       21   -1    0    0  503  504  0.00000000000E+00  0.00000000000E+00  8.74082609584E+01  8.74082609584E+01  0.00000000000E+00 0.00000000000E+00  1.
       21   -1    0    0  504  503  0.00000000000E+00  0.00000000000E+00 -3.01341726235E+02  3.01341726235E+02  0.00000000000E+00 0.00000000000E+00  1.
       23    2    1    2    0    0  2.62337599811E+01 -7.29641660163E+01 -2.09908634843E+02  2.41599795399E+02  9.10870269020E+01 0.00000000000E+00  1.
       25    1    1    2    0    0 -2.62337599811E+01  7.29641660163E+01 -4.02483043371E+00  1.47150191795E+02  1.25000000000E+02 0.00000000000E+00  1.
       16    1    3    3    0    0 -1.47529952901E+01  1.57401675750E+01 -3.14103798729E+01  3.81053238941E+01  3.37174788087E-07 0.00000000000E+00  1.
      -16    1    3    3    0    0  4.09867552711E+01 -8.87043335914E+01 -1.78498254970E+02  2.03494471505E+02  0.00000000000E+00 0.00000000000E+00  1.
</event>
<event>
 6  51   1.0000000E+00   1.2500000E+02   7.8125000E-03   1.2380865E-01
       21   -1    0    0  503  504  0.00000000000E+00  0.00000000000E+00  5.71384557901E+02  5.71384557901E+02  0.00000000000E+00 0.00000000000E+00  1.
       21   -1    0    0  504  503  0.00000000000E+00  0.00000000000E+00 -5.06272762109E+01  5.06272762109E+01  0.00000000000E+00 0.00000000000E+00  1.
       23    2    1    2    0    0  2.80212412584E+01  1.23661881655E+02  1.70597255890E+02  2.29182997843E+02  8.56969768842E+01 0.00000000000E+00  1.
       25    1    1    2    0    0 -2.80212412584E+01 -1.23661881655E+02  3.50160025799E+02  3.92828836268E+02  1.25000000000E+02 0.00000000000E+00  1.
        3    1    3    3  502    0 -3.09037722362E+01  3.87640273139E+01  5.96433788480E+01  7.75565960601E+01  6.74349576174E-07 0.00000000000E+00  1.
       -3    1    3    3    0  502  5.89250134945E+01  8.48978543407E+01  1.10953877042E+02  1.51626401783E+02  2.33601545599E-06 0.00000000000E+00  1.
</event>
<event>
 6  51   1.0000000E+00   1.2500000E+02   7.8125000E-03   1.2380865E-01
       21   -1    0    0  503  504  0.00000000000E+00  0.00000000000E+00  3.34823560761E+02  3.34823560761E+02  0.00000000000E+00 0.00000000000E+00  1.
       21   -1    0    0  504  503  0.00000000000E+00  0.00000000000E+00 -1.11616575768E+02  1.11616575768E+02  0.00000000000E+00 0.00000000000E+00  1.
       23    2    1    2    0    0 -1.36691520704E+02  6.40318527691E+01  4.61520309407E+01  1.82322536291E+02  9.12515604157E+01 0.00000000000E+00  1.
       25    1    1    2    0    0  1.36691520704E+02 -6.40318527691E+01  1.77054954052E+02  2.64117600238E+02  1.25000000000E+02 0.00000000000E+00  1.
        5    1    3    3  502    0 -1.26697591126E+02  8.37106028564E+01  3.07952714544E+01  1.55018243674E+02  4.75000000000E+00 0.00000000000E+00  1.
       -5    1    3    3    0  502 -9.99392957719E+00 -1.96787500873E+01  1.53567594862E+01  2.73042926169E+01  4.75000000000E+00 0.00000000000E+00  1.
</event>
<event>
 6  51   1.0000000E+00   1.2500000E+02   7.8125000E-03   1.2380865E-01
       21   -1    0    0  503  504  0.00000000000E+00  0.00000000000E+00  4.47592801266E+02  4.47592801266E+02  0.00000000000E+00 0.00000000000E+00  1.
       21   -1    0    0  504  503  0.00000000000E+00  0.00000000000E+00 -7.08684861697E+01  7.08684861697E+01  0.00000000000E+00 0.00000000000E+00  1.
       23    2    1    2    0    0  9.91088288519E+01  7.67921610724E+01  8.92813367069E+01  1.80869726842E+02  9.49900260304E+01 0.00000000000E+00  1.
       25    1    1    2    0    0 -9.91088288519E+01 -7.67921610724E+01  2.87442978390E+02  3.37591560594E+02  1.25000000000E+02 0.00000000000E+00  1.
        5    1    3    3  502    0  4.60307254456E+01 -4.20010625675E+00 -3.60280809830E+00  4.66048420640E+01  4.75000000000E+00 0.00000000000E+00  1.
       -5    1    3    3    0  502  5.30781034063E+01  8.09922673292E+01  9.28841448052E+01  1.34264884778E+02  4.75000000000E+00 0.00000000000E+00  1.
</event>
<event>
 6  51   1.0000000E+00   1.2500000E+02   7.8125000E-03   1.2380865E-01
       21   -1    0    0  503  504  0.00000000000E+00  0.00000000000E+00  4.12967685833E+02  4.12967685833E+02  0.00000000000E+00 0.00000000000E+00  1.
       21   -1    0    0  504  503  0.00000000000E+00  0.00000000000E+00 -8.65239682699E+01  8.65239682699E+01  0.00000000000E+00 0.00000000000E+00  1.
       23    2    1    2    0    0  6.35034569247E+01  1.40476507548E+02  1.55004826472E+02  2.37227223436E+02  9.21082031944E+01 0.00000000000E+00  1.
       25    1    1    2    0    0 -6.35034569247E+01 -1.40476507548E+02  1.71438891091E+02  2.62264430666E+02  1.25000000000E+02 0.00000000000E+00  1.
        3    1    3    3  502    0  8.75380547794E+01  1.15448808343E+02  1.24882130934E+02  1.91276985048E+02  0.00000000000E+00 0.00000000000E+00  1.
       -3    1    3    3    0  502 -2.40345978547E+01  2.50276992045E+01  3.01226955378E+01  4.59502383886E+01  8.25906184945E-07 0.00000000000E+00  1.
</event>
<event>
 6  51   1.0000000E+00   1.2500000E+02   7.8125000E-03   1.2380865E-01
       21   -1    0    0  503  504  0.00000000000E+00  0.00000000000E+00  5.73902832825E+01  5.73902832825E+01  0.00000000000E+00 0.00000000000E+00  1.
       21   -1    0    0  504  503  0.00000000000E+00  0.00000000000E+00 -6.25975549467E+02  6.25975549467E+02  0.00000000000E+00 0.00000000000E+00  1.
       23    2    1    2    0    0 -2.91018631307E+01  1.38407394155E+02 -3.83951135298E+02  4.19323624983E+02  9.17077040230E+01 0.00000000000E+00  1.
       25    1    1    2    0    0  2.91018631307E+01 -1.38407394155E+02 -1.84634130887E+02  2.64042207767E+02  1.25000000000E+02 0.00000000000E+00  1.
       12    1    3    3    0    0 -6.23518443940E+01  9.59046845740E+01 -2.50968177379E+02  2.75808787169E+02  3.81469726562E-06 0.00000000000E+00  1.
      -12    1    3    3    0    0  3.32499812633E+01  4.25027095810E+01 -1.32982957920E+02  1.43514837814E+02  1.90734863281E-06 0.00000000000E+00  1.
</event>
<event>
 6  51   1.0000000E+00   1.2500000E+02   7.8125000E-03   1.2380865E-01
       21   -1    0    0  503  504  0.00000000000E+00  0.00000000000E+00  2.38169215929E+02  2.38169215929E+02  0.00000000000E+00 0.00000000000E+00  1.
       21   -1    0    0  504  503  0.00000000000E+00  0.00000000000E+00 -7.49919286841E+01  7.49919286841E+01  0.00000000000E+00 0.00000000000E+00  1.
       23    2    1    2    0    0  3.75722589131E+01 -5.74617434384E+01  1.15869516216E+02  1.62906188627E+02  9.16469034166E+01 0.00000000000E+00  1.
       25    1    1    2    0    0 -3.75722589131E+01  5.74617434384E+01  4.73077710286E+01  1.50254955987E+02  1.25000000000E+02 0.00000000000E+00  1.
        1    1    3    3  502    0 -1.60815260419E+01 -5.59869770143E+01  4.29998993359E+01  7.24026823946E+01  1.58148993986E-06 0.00000000000E+00  1.
       -1    1    3    3    0  502  5.36537849550E+01 -1.47476642409E+00  7.28696168805E+01  9.05035062321E+01  1.90734863281E-06 0.00000000000E+00  1.
</event>
<event>
 6  51   1.0000000E+00   1.2500000E+02   7.8125000E-03   1.2380865E-01
       21   -1    0    0  503  504  0.00000000000E+00  0.00000000000E+00  1.07606735283E+03  1.07606735283E+03  0.00000000000E+00 0.00000000000E+00  1.
       21   -1    0    0  504  503  0.00000000000E+00  0.00000000000E+00 -2.65526625361E+01  2.65526625361E+01  0.00000000000E+00 0.00000000000E+00  1.
       23    2    1    2    0    0 -9.59385298367E+01 -8.54345982664E+01  5.19746351411E+02  5.43350165499E+02  9.26815000649E+01 0.00000000000E+00  1.
       25    1    1    2    0    0  9.59385298367E+01  8.54345982664E+01  5.29768338886E+02  5.59269849870E+02  1.25000000000E+02 0.00000000000E+00  1.
        1    1    3    3  502    0 -2.21303539443E+01 -7.41901224299E+01  1.88213458386E+02  2.03514699100E+02  3.81469726562E-06 0.00000000000E+00  1.
       -1    1    3    3    0  502 -7.38081758924E+01 -1.12444758365E+01  3.31532893025E+02  3.39835466399E+02  3.81469726562E-06 0.00000000000E+00  1.
</event>
<event>
 6  51   1.0000000E+00   1.2500000E+02   7.8125000E-03   1.2380865E-01
       21   -1    0    0  503  504  0.00000000000E+00  0.00000000000E+00  3.23195105629E+01  3.23195105629E+01  0.00000000000E+00 0.00000000000E+00  1.
       21   -1    0    0  504  503  0.00000000000E+00  0.00000000000E+00 -1.08362533706E+03  1.08362533706E+03  0.00000000000E+00 0.00000000000E+00  1.
       23    2    1    2    0    0  1.47892622084E+02  3.41190655307E+01 -4.11782505644E+02  4.46877275389E+02  8.42503946904E+01 0.00000000000E+00  1.
       25    1    1    2    0    0 -1.47892622084E+02 -3.41190655307E+01 -6.39523320855E+02  6.69067572236E+02  1.25000000000E+02 0.00000000000E+00  1.
        5    1    3    3  502    0  9.50207303380E+01 -6.82487547113E+00 -3.15138322054E+02  3.29257107207E+02  4.75000000000E+00 0.00000000000E+00  1.
       -5    1    3    3    0  502  5.28718917457E+01  4.09439410018E+01 -9.66441835903E+01  1.17620168183E+02  4.75000000000E+00 0.00000000000E+00  1.
</event>
<event>
 6  51   1.0000000E+00   1.2500000E+02   7.8125000E-03   1.2380865E-01
       21   -1    0    0  503  504  0.00000000000E+00  0.00000000000E+00  4.08105466614E+01  4.08105466614E+01  0.00000000000E+00 0.00000000000E+00  1.
       21   -1    0    0  504  503  0.00000000000E+00  0.00000000000E+00 -5.28039226007E+02  5.28039226007E+02  0.00000000000E+00 0.00000000000E+00  1.
       23    2    1    2    0    0 -2.76066029501E+01  7.80377712414E+01 -3.23628262497E+02  3.46944129072E+02  9.37174377809E+01 0.00000000000E+00  1.
       25    1    1    2    0    0  2.76066029501E+01 -7.80377712414E+01 -1.63600416849E+02  2.21905643596E+02  1.25000000000E+02 0.00000000000E+00  1.
        2    1    3    3  502    0  2.43541803801E+00 -1.36267862700E+01 -1.28819593902E+02  1.29561214636E+02  0.00000000000E+00 0.00000000000E+00  1.
       -2    1    3    3    0  502 -3.00420209881E+01  9.16645575114E+01 -1.94808668595E+02  2.17382914436E+02  0.00000000000E+00 0.00000000000E+00  1.
</event>
<event>
 6  51   1.0000000E+00   1.2500000E+02   7.8125000E-03   1.2380865E-01
       21   -1    0    0  503  504  0.00000000000E+00  0.00000000000E+00  3.92554448692E+01  3.92554448692E+01  0.00000000000E+00 0.00000000000E+00  1.
       21   -1    0    0  504  503  0.00000000000E+00  0.00000000000E+00 -1.12479531900E+03  1.12479531900E+03  0.00000000000E+00 0.00000000000E+00  1.
       23    2    1    2    0    0 -3.01693521371E+01 -1.61619053073E+02 -7.20511744531E+02  7.44644703441E+02  9.12559709331E+01 0.00000000000E+00  1.
       25    1    1    2    0    0  3.01693521371E+01  1.61619053073E+02 -3.65028129596E+02  4.19406060425E+02  1.25000000000E+02 0.00000000000E+00  1.
        3    1    3    3  502    0 -4.48305609572E+01 -3.31188751886E+01 -1.60850135317E+02  1.70233384273E+02  0.00000000000E+00 0.00000000000E+00  1.
       -3    1    3    3    0  502  1.46612088201E+01 -1.28500177884E+02 -5.59661609214E+02  5.74411319168E+02  1.32144989591E-05 0.00000000000E+00  1.
</event>
<event>
 6  51   1.0000000E+00   1.2500000E+02   7.8125000E-03   1.2380865E-01
       21   -1    0    0  503  504  0.00000000000E+00  0.00000000000E+00  2.26847013694E+02  2.26847013694E+02  0.00000000000E+00 0.00000000000E+00  1.
       21   -1    0    0  504  503  0.00000000000E+00  0.00000000000E+00 -4.58609787039E+02  4.58609787039E+02  0.00000000000E+00 0.00000000000E+00  1.
       23    2    1    2    0    0  2.21701957043E+02  1.81097989658E+02 -6.59841836202E+00  3.00395472670E+02  9.08056235111E+01 0.00000000000E+00  1.
       25    1    1    2    0    0 -2.21701957043E+02 -1.81097989658E+02 -2.25164354983E+02  3.85061328063E+02  1.25000000000E+02 0.00000000000E+00  1.
       11    1    3    3    0    0  1.70190152300E+02  1.35587914384E+02 -4.42078866334E+01  2.22043031208E+02  5.10981688966E-04 0.00000000000E+00  1.
      -11    1    3    3    0    0  5.15118047425E+01  4.55100752738E+01  3.76094682713E+01  7.83524414627E+01  5.10995038018E-04 0.00000000000E+00  1.
</event>
<event>
 6  51   1.0000000E+00   1.2500000E+02   7.8125000E-03   1.2380865E-01
       21   -1    0    0  503  504  0.00000000000E+00  0.00000000000E+00  1.29735716237E+02  1.29735716237E+02  0.00000000000E+00 0.00000000000E+00  1.
       21   -1    0    0  504  503  0.00000000000E+00  0.00000000000E+00 -1.69257414117E+02  1.69257414117E+02  0.00000000000E+00 0.00000000000E+00  1.
       23    2    1    2    0    0 -7.66633007969E+01 -6.55944024990E+01  1.67780516703E+00  1.33154997285E+02  8.68766421053E+01 0.00000000000E+00  1.
       25    1    1    2    0    0  7.66633007969E+01  6.55944024990E+01 -4.11995030474E+01  1.65838133068E+02  1.25000000000E+02 0.00000000000E+00  1.
        3    1    3    3  502    0 -8.43552789853E+01 -2.60889774771E+01  1.73104509943E+01  8.99783282358E+01  1.93692169300E-06 0.00000000000E+00  1.
       -3    1    3    3    0  502  7.69197818839E+00 -3.95054250219E+01 -1.56326458273E+01  4.31766690491E+01  4.46040318820E-07 0.00000000000E+00  1.
</event>
</LesHouchesEvents>
