<LesHouchesEvents version="1.0">
<!--
Output from the JHUGenerator v7.2.3 described in arXiv:1001.3396 [hep-ph], arXiv:1208.4018 [hep-ph], arXiv:1309.4819 [hep-ph], arXiv:1606.03107 [hep-ph]
   
   Command line: ./JHUGen DecayMode1=8 DecayMode2=9 FilterNLept=4 WriteFailedEvents=2 Seed=786453 ReadLHE=undecayed.lhe Seed=786453 DataFile=Out
   
   Input Parameter:
    Collider: P-P, sqrt(s)=13000.00
    Resonance: spin=0, mass= 125.00 width=   0.00407
               (This is ReadLHEFile mode. Resonance mass/width are read from LHE input parameters.)
    DecayMode1: 8  DecayMode2: 9
    Z boson: mass=91.188, width=2.4952
    Lepton filter activated. Requesting  4 leptons.
    Random seed:      786453
    To reproduce results using this seed, JHUGen should be compiled with the same compiler:
      GNU Fortran (GCC) 6.3.0
    Interference: T
    Intermediate off-shell photons: F
    
    spin-0-VV couplings: 
      generate_as=F
      ghg2=  0.10000000E+01  0.00000000E+00i
      ghz1=  0.20000000E+01  0.00000000E+00i
      Lambda=  1000.0
    
    LHE output: Out.lhe
    Histogram output: Out.dat
    Log file: Out.log
    LHE input: undecayed.lhe
    

Output from the JHUGenerator v7.2.3 described in arXiv:1001.3396 [hep-ph], arXiv:1208.4018 [hep-ph], arXiv:1309.4819 [hep-ph], arXiv:1606.03107 [hep-ph]

   Command line: ./JHUGen VegasNc0=5000000 Process=51 VH_PC=gg DecayMode1=9 MReso=125 LHAPDF=NNPDF31_lo_as_0130/NNPDF31_lo_as_0130.info ReadCSmax VegasNc2=100 S

   Input Parameter:
    Collider: P-P, sqrt(s)=13000.00
    Resonance: spin=0, mass= 125.00 width=   0.00407
    Random seed:      786453
    To reproduce results using this seed, JHUGen should be compiled with the same compiler:
      GNU Fortran (GCC) 6.3.0

    WidthScheme:   2
    LHAPDF set NNPDF31_lo_as_0130/NNPDF31_lo_as_0130.info, member=  0
    Unweighted: T

      Lambda=  1000.0

    LHE output: undecayed.lhe
    Histogram output: undecayed.dat
    Log file: undecayed.log

-->
<init>
2212 2212   6500.0000000000000000    6500.0000000000000000 0 0  315200  315200  3  1
 1.0000000E+00  1.0000000E+14  1.0000000E+00  51
</init>
<event>
 0  51   0.0000000E+00   1.2500000E+02   7.8125000E-03   1.2380865E-01
</event>
<event>
 0  51   0.0000000E+00   1.2500000E+02   7.8125000E-03   1.2380865E-01
</event>
<event>
 0  51   0.0000000E+00   1.2500000E+02   7.8125000E-03   1.2380865E-01
</event>
<event>
 0  51   0.0000000E+00   1.2500000E+02   7.8125000E-03   1.2380865E-01
</event>
<event>
 0  51   0.0000000E+00   1.2500000E+02   7.8125000E-03   1.2380865E-01
</event>
<event>
12  51   1.0000000E+00   1.2500000E+02   7.8125000E-03   1.2380865E-01
       21   -1    0    0  503  504  0.00000000000E+00  0.00000000000E+00  2.63227413070E+02  2.63227413070E+02  0.00000000000E+00 0.00000000000E+00  1.
       21   -1    0    0  504  503  0.00000000000E+00  0.00000000000E+00 -1.61645668183E+02  1.61645668183E+02  0.00000000000E+00 0.00000000000E+00  1.
       23    2    1    2    0    0 -1.51729271433E+02  5.75058779933E+01 -1.91010649581E+01  1.87137853729E+02  9.12525495672E+01 0.00000000000E+00  1.
       25    2    1    2    0    0  1.51729271433E+02 -5.75058779933E+01  1.20682809845E+02  2.37735227523E+02  1.25000000000E+02 0.00000000000E+00  1.
       11    1    3    3    0    0 -6.84008397955E+01  3.79875596329E+00  3.19934720073E+01  7.56087804619E+01  5.10998041507E-04 0.00000000000E+00  1.
      -11    1    3    3    0    0 -8.33284316377E+01  5.37071220300E+01 -5.10945369654E+01  1.11529073268E+02  5.11003937192E-04 0.00000000000E+00  1.
       23    2    4    4    0    0  2.38669019762E+01 -4.65698896084E+00  3.78661667609E+01  5.23894192442E+01  2.68232754797E+01 0.00000000000E+00  1.
       23    2    4    4    0    0  1.27862369457E+02 -5.28488890325E+01  8.28166430841E+01  1.85345808279E+02  9.13930067332E+01 0.00000000000E+00  1.
      -15    1    7    7    0    0  2.55047845606E+01  4.70812148760E+00  3.13541680750E+01  4.07296122906E+01  1.77680000000E+00 0.00000000000E+00  1.
       15    1    7    7    0    0 -1.63788258436E+00 -9.36511044844E+00  6.51199868588E+00  1.16598069537E+01  1.77680000000E+00 0.00000000000E+00  1.
      -11    1    8    8    0    0  5.74364810422E+01 -4.35707577425E+01  8.84263477036E+01  1.14090224179E+02  5.11002294681E-04 0.00000000000E+00  1.
       11    1    8    8    0    0  7.04258884146E+01 -9.27813128998E+00 -5.60970461949E+00  7.12555840997E+01  5.10997665073E-04 0.00000000000E+00  1.
</event>
<event>
 0  51   0.0000000E+00   1.2500000E+02   7.8125000E-03   1.2380865E-01
</event>
<event>
 0  51   0.0000000E+00   1.2500000E+02   7.8125000E-03   1.2380865E-01
</event>
<event>
 0  51   0.0000000E+00   1.2500000E+02   7.8125000E-03   1.2380865E-01
</event>
<event>
 0  51   0.0000000E+00   1.2500000E+02   7.8125000E-03   1.2380865E-01
</event>
<event>
 0  51   0.0000000E+00   1.2500000E+02   7.8125000E-03   1.2380865E-01
</event>
<event>
 0  51   0.0000000E+00   1.2500000E+02   7.8125000E-03   1.2380865E-01
</event>
<event>
 0  51   0.0000000E+00   1.2500000E+02   7.8125000E-03   1.2380865E-01
</event>
<event>
 0  51   0.0000000E+00   1.2500000E+02   7.8125000E-03   1.2380865E-01
</event>
<event>
 0  51   0.0000000E+00   1.2500000E+02   7.8125000E-03   1.2380865E-01
</event>
<event>
 0  51   0.0000000E+00   1.2500000E+02   7.8125000E-03   1.2380865E-01
</event>
<event>
 0  51   0.0000000E+00   1.2500000E+02   7.8125000E-03   1.2380865E-01
</event>
<event>
 0  51   0.0000000E+00   1.2500000E+02   7.8125000E-03   1.2380865E-01
</event>
<event>
 0  51   0.0000000E+00   1.2500000E+02   7.8125000E-03   1.2380865E-01
</event>
<event>
 0  51   0.0000000E+00   1.2500000E+02   7.8125000E-03   1.2380865E-01
</event>
<event>
 0  51   0.0000000E+00   1.2500000E+02   7.8125000E-03   1.2380865E-01
</event>
<event>
 0  51   0.0000000E+00   1.2500000E+02   7.8125000E-03   1.2380865E-01
</event>
<event>
 0  51   0.0000000E+00   1.2500000E+02   7.8125000E-03   1.2380865E-01
</event>
<event>
12  51   1.0000000E+00   1.2500000E+02   7.8125000E-03   1.2380865E-01
       21   -1    0    0  503  504  0.00000000000E+00  0.00000000000E+00  2.44370518918E+02  2.44370518918E+02  0.00000000000E+00 0.00000000000E+00  1.
       21   -1    0    0  504  503  0.00000000000E+00  0.00000000000E+00 -6.39000604941E+01  6.39000604941E+01  0.00000000000E+00 0.00000000000E+00  1.
       23    2    1    2    0    0  2.88109775542E+01  2.37242598496E+01  1.74665251644E+01  9.94927185382E+01  9.05583160608E+01 0.00000000000E+00  1.
       25    2    1    2    0    0 -2.88109775542E+01 -2.37242598496E+01  1.63003933260E+02  2.08777860874E+02  1.25000000000E+02 0.00000000000E+00  1.
       11    1    3    3    0    0  5.85184247310E+01  2.09120170843E+01 -4.69998948867E+00  6.23202085441E+01  5.10999345099E-04 0.00000000000E+00  1.
      -11    1    3    3    0    0 -2.97074471768E+01  2.81224276529E+00  2.21665146531E+01  3.71725099941E+01  5.10999710104E-04 0.00000000000E+00  1.
       23    2    4    4    0    0 -3.56193518179E+01 -1.58565352548E+01  1.40778925996E+02  1.72716563317E+02  9.21527932583E+01 0.00000000000E+00  1.
       23    2    4    4    0    0  6.80837426368E+00 -7.86772459476E+00  2.22250072639E+01  3.60612975567E+01  2.64236860256E+01 0.00000000000E+00  1.
       -5    1    7    7    0  804  1.79727435063E+01 -2.95995291030E+01  9.33836827736E+01  9.97107132690E+01  4.75000000000E+00 0.00000000000E+00  1.
        5    1    7    7  804    0 -5.35920953242E+01  1.37429938481E+01  4.73952432225E+01  7.30058500482E+01  4.75000000000E+00 0.00000000000E+00  1.
      -15    1    8    8    0    0  6.22016430464E+00 -2.84549943615E+00 -4.77850866236E+00  8.53103008399E+00  1.77680000000E+00 0.00000000000E+00  1.
       15    1    8    8    0    0  5.88209959048E-01 -5.02222515861E+00  2.70035159263E+01  2.75302674727E+01  1.77680000000E+00 0.00000000000E+00  1.
</event>
<event>
12  51   1.0000000E+00   1.2500000E+02   7.8125000E-03   1.2380865E-01
       21   -1    0    0  503  504  0.00000000000E+00  0.00000000000E+00  1.32460038560E+02  1.32460038560E+02  0.00000000000E+00 0.00000000000E+00  1.
       21   -1    0    0  504  503  0.00000000000E+00  0.00000000000E+00 -1.57157447273E+03  1.57157447273E+03  0.00000000000E+00 0.00000000000E+00  1.
       23    2    1    2    0    0  2.99339615640E+02  1.10577023548E+02 -1.28711503512E+03  1.32912078663E+03  8.98079516906E+01 0.00000000000E+00  1.
       25    2    1    2    0    0 -2.99339615640E+02 -1.10577023548E+02 -1.51999399049E+02  3.74913724661E+02  1.25000000000E+02 0.00000000000E+00  1.
       15    1    3    3    0    0  2.11138697249E+02  3.50689016765E+01 -8.90065114505E+02  9.15438934292E+02  1.77679999999E+00 0.00000000000E+00  1.
      -15    1    3    3    0    0  8.82009183903E+01  7.55081218715E+01 -3.97049920616E+02  4.13681852337E+02  1.77680000000E+00 0.00000000000E+00  1.
       23    2    4    4    0    0 -9.32031828480E+01 -3.30152389613E+01 -5.56850151575E+01  1.17246727875E+02  2.94810954293E+01 0.00000000000E+00  1.
       23    2    4    4    0    0 -2.06136432792E+02 -7.75617845867E+01 -9.63143838915E+01  2.57666996786E+02  9.27780218353E+01 0.00000000000E+00  1.
      -13    1    7    7    0    0 -1.13036114574E+01 -9.59894526922E+00  1.10368928542E+00  1.48707994518E+01  1.05660000000E-01 0.00000000000E+00  1.
       13    1    7    7    0    0 -8.18995713906E+01 -2.34162936920E+01 -5.67887044429E+01  1.02375928423E+02  1.05659999994E-01 0.00000000000E+00  1.
       -1    1    8    8    0  804 -1.89297553285E+01 -2.23230952571E+01  1.50859616817E+01  3.29278371370E+01  1.86264514923E-07 0.00000000000E+00  1.
        1    1    8    8  804    0 -1.87206677464E+02 -5.52386893296E+01 -1.11400345573E+02  2.24739159649E+02  3.33200093731E-06 0.00000000000E+00  1.
</event>
<event>
12  51   1.0000000E+00   1.2500000E+02   7.8125000E-03   1.2380865E-01
       21   -1    0    0  503  504  0.00000000000E+00  0.00000000000E+00  6.16585760707E+02  6.16585760707E+02  0.00000000000E+00 0.00000000000E+00  1.
       21   -1    0    0  504  503  0.00000000000E+00  0.00000000000E+00 -5.52934162852E+01  5.52934162852E+01  0.00000000000E+00 0.00000000000E+00  1.
       23    2    1    2    0    0 -2.86854409030E+01  6.89311655296E+01  5.00501560495E+02  5.14098064334E+02  9.06677869671E+01 0.00000000000E+00  1.
       25    2    1    2    0    0  2.86854409030E+01 -6.89311655296E+01  6.07907839267E+01  1.57781112658E+02  1.25000000000E+02 0.00000000000E+00  1.
        5    1    3    3  502    0 -1.58651615038E+01  7.48465800545E+01  2.15865630989E+02  2.29072580284E+02  4.75000000000E+00 0.00000000000E+00  1.
       -5    1    3    3    0  502 -1.28202793992E+01 -5.91541452496E+00  2.84635929505E+02  2.85025484050E+02  4.75000000000E+00 0.00000000000E+00  1.
       23    2    4    4    0    0 -2.09873241250E+01 -1.34884639764E+01  3.49768642203E-02  2.83773558399E+01  1.35228202202E+01 0.00000000000E+00  1.
       23    2    4    4    0    0  4.96727650280E+01 -5.54427015532E+01  6.07558070625E+01  1.29403756818E+02  8.66763372888E+01 0.00000000000E+00  1.
      -13    1    7    7    0    0 -3.27307273082E+00  3.62441205732E-01  4.37373607062E+00  5.47586522660E+00  1.05660000000E-01 0.00000000000E+00  1.
       13    1    7    7    0    0 -1.77142513942E+01 -1.38509051822E+01 -4.33875920640E+00  2.29014906133E+01  1.05660000001E-01 0.00000000000E+00  1.
      -13    1    8    8    0    0  3.26804209645E+01  1.28775216514E+01 -1.87355657171E+00  3.51761546585E+01  1.05659999999E-01 0.00000000000E+00  1.
       13    1    8    8    0    0  1.69923440635E+01 -6.83202232045E+01  6.26293636342E+01  9.42276021596E+01  1.05660000007E-01 0.00000000000E+00  1.
</event>
<event>
 0  51   0.0000000E+00   1.2500000E+02   7.8125000E-03   1.2380865E-01
</event>
<event>
 0  51   0.0000000E+00   1.2500000E+02   7.8125000E-03   1.2380865E-01
</event>
<event>
 0  51   0.0000000E+00   1.2500000E+02   7.8125000E-03   1.2380865E-01
</event>
<event>
 0  51   0.0000000E+00   1.2500000E+02   7.8125000E-03   1.2380865E-01
</event>
<event>
 0  51   0.0000000E+00   1.2500000E+02   7.8125000E-03   1.2380865E-01
</event>
<event>
 0  51   0.0000000E+00   1.2500000E+02   7.8125000E-03   1.2380865E-01
</event>
<event>
 0  51   0.0000000E+00   1.2500000E+02   7.8125000E-03   1.2380865E-01
</event>
<event>
 0  51   0.0000000E+00   1.2500000E+02   7.8125000E-03   1.2380865E-01
</event>
<event>
 0  51   0.0000000E+00   1.2500000E+02   7.8125000E-03   1.2380865E-01
</event>
<event>
 0  51   0.0000000E+00   1.2500000E+02   7.8125000E-03   1.2380865E-01
</event>
<event>
 0  51   0.0000000E+00   1.2500000E+02   7.8125000E-03   1.2380865E-01
</event>
<event>
 0  51   0.0000000E+00   1.2500000E+02   7.8125000E-03   1.2380865E-01
</event>
<event>
 0  51   0.0000000E+00   1.2500000E+02   7.8125000E-03   1.2380865E-01
</event>
<event>
 0  51   0.0000000E+00   1.2500000E+02   7.8125000E-03   1.2380865E-01
</event>
<event>
 0  51   0.0000000E+00   1.2500000E+02   7.8125000E-03   1.2380865E-01
</event>
<event>
 0  51   0.0000000E+00   1.2500000E+02   7.8125000E-03   1.2380865E-01
</event>
<event>
 0  51   0.0000000E+00   1.2500000E+02   7.8125000E-03   1.2380865E-01
</event>
<event>
 0  51   0.0000000E+00   1.2500000E+02   7.8125000E-03   1.2380865E-01
</event>
<event>
 0  51   0.0000000E+00   1.2500000E+02   7.8125000E-03   1.2380865E-01
</event>
<event>
 0  51   0.0000000E+00   1.2500000E+02   7.8125000E-03   1.2380865E-01
</event>
<event>
 0  51   0.0000000E+00   1.2500000E+02   7.8125000E-03   1.2380865E-01
</event>
<event>
12  51   1.0000000E+00   1.2500000E+02   7.8125000E-03   1.2380865E-01
       21   -1    0    0  503  504  0.00000000000E+00  0.00000000000E+00  3.14419443586E+02  3.14419443586E+02  0.00000000000E+00 0.00000000000E+00  1.
       21   -1    0    0  504  503  0.00000000000E+00  0.00000000000E+00 -1.32716806939E+02  1.32716806939E+02  0.00000000000E+00 0.00000000000E+00  1.
       23    2    1    2    0    0  6.25072513434E+01  1.20597313185E+02  2.01516954642E+02  2.61479374500E+02  9.64961753800E+01 0.00000000000E+00  1.
       25    2    1    2    0    0 -6.25072513434E+01 -1.20597313185E+02 -1.98143179940E+01  1.85656876025E+02  1.25000000000E+02 0.00000000000E+00  1.
       11    1    3    3    0    0  6.89793283286E+01  9.74750269077E+01  9.58631981135E+01  1.53131581851E+02  5.11000377541E-04 0.00000000000E+00  1.
      -11    1    3    3    0    0 -6.47207698520E+00  2.31222862770E+01  1.05653756528E+02  1.08347792649E+02  5.11002157370E-04 0.00000000000E+00  1.
       23    2    4    4    0    0 -6.06762684161E+01 -1.12365758385E+02 -1.27248326889E+01  1.61686902688E+02  9.83517154275E+01 0.00000000000E+00  1.
       23    2    4    4    0    0 -1.83098292730E+00 -8.23155480020E+00 -7.08948530512E+00  2.39699733372E+01  2.12882086373E+01 0.00000000000E+00  1.
      -11    1    7    7    0    0 -1.06719991287E+01  1.08608500003E+01 -2.37856269904E+01  2.82419135279E+01  5.10999375190E-04 0.00000000000E+00  1.
       11    1    7    7    0    0 -5.00042692874E+01 -1.23226608385E+02  1.10607943015E+01  1.33444989160E+02  5.10995946464E-04 0.00000000000E+00  1.
       -1    1    8    8    0  804  1.43670735086E+00 -9.33515019873E+00 -1.36259441569E+01  1.65793700547E+01  2.63417803193E-07 0.00000000000E+00  1.
        1    1    8    8  804    0 -3.26769027816E+00  1.10359539853E+00  6.53645885178E+00  7.39060328245E+00  1.31708901597E-07 0.00000000000E+00  1.
</event>
<event>
 0  51   0.0000000E+00   1.2500000E+02   7.8125000E-03   1.2380865E-01
</event>
<event>
 0  51   0.0000000E+00   1.2500000E+02   7.8125000E-03   1.2380865E-01
</event>
<event>
 0  51   0.0000000E+00   1.2500000E+02   7.8125000E-03   1.2380865E-01
</event>
<event>
 0  51   0.0000000E+00   1.2500000E+02   7.8125000E-03   1.2380865E-01
</event>
<event>
12  51   1.0000000E+00   1.2500000E+02   7.8125000E-03   1.2380865E-01
       21   -1    0    0  503  504  0.00000000000E+00  0.00000000000E+00  3.48158646137E+02  3.48158646137E+02  0.00000000000E+00 0.00000000000E+00  1.
       21   -1    0    0  504  503  0.00000000000E+00  0.00000000000E+00 -1.19071370025E+02  1.19071370025E+02  0.00000000000E+00 0.00000000000E+00  1.
       23    2    1    2    0    0  6.25349670680E+01 -1.10084386989E+02 -2.64090513535E+01  1.55890060946E+02  8.70349282960E+01 0.00000000000E+00  1.
       25    2    1    2    0    0 -6.25349670680E+01  1.10084386989E+02  2.55496327466E+02  3.11339955215E+02  1.25000000000E+02 0.00000000000E+00  1.
       11    1    3    3    0    0  7.52563822608E+01 -7.86376296677E+01 -4.43276292274E+01  1.17525906012E+02  5.10995927942E-04 0.00000000000E+00  1.
      -11    1    3    3    0    0 -1.27214151929E+01 -3.14467573217E+01  1.79185778739E+01  3.83641549346E+01  5.11000655640E-04 0.00000000000E+00  1.
       23    2    4    4    0    0 -2.33283606389E+01  4.95284890439E+01  9.74447953614E+01  1.15963980747E+02  3.09010202209E+01 0.00000000000E+00  1.
       23    2    4    4    0    0 -3.92066064291E+01  6.05558979451E+01  1.58051532105E+02  1.95375974468E+02  8.93717507657E+01 0.00000000000E+00  1.
       -2    1    7    7    0  804 -2.27539277768E+01  1.64366114771E+01  3.15828895211E+01  4.22537848793E+01  8.33000234328E-07 0.00000000000E+00  1.
        2    1    7    7  804    0 -5.74432862139E-01  3.30918775668E+01  6.58619058403E+01  7.37101958682E+01  1.05367121277E-06 0.00000000000E+00  1.
      -15    1    8    8    0    0  5.53866155853E+00  3.52039130792E+01  1.33823701056E+02  1.38498852885E+02  1.77680000000E+00 0.00000000000E+00  1.
       15    1    8    8    0    0 -4.47452679876E+01  2.53519848660E+01  2.42278310484E+01  5.68771215822E+01  1.77680000000E+00 0.00000000000E+00  1.
</event>
<event>
 0  51   0.0000000E+00   1.2500000E+02   7.8125000E-03   1.2380865E-01
</event>
<event>
 0  51   0.0000000E+00   1.2500000E+02   7.8125000E-03   1.2380865E-01
</event>
<event>
 0  51   0.0000000E+00   1.2500000E+02   7.8125000E-03   1.2380865E-01
</event>
<event>
 0  51   0.0000000E+00   1.2500000E+02   7.8125000E-03   1.2380865E-01
</event>
<event>
 0  51   0.0000000E+00   1.2500000E+02   7.8125000E-03   1.2380865E-01
</event>
<event>
12  51   1.0000000E+00   1.2500000E+02   7.8125000E-03   1.2380865E-01
       21   -1    0    0  503  504  0.00000000000E+00  0.00000000000E+00  2.16777874501E+02  2.16777874501E+02  0.00000000000E+00 0.00000000000E+00  1.
       21   -1    0    0  504  503  0.00000000000E+00  0.00000000000E+00 -2.54042565261E+02  2.54042565261E+02  0.00000000000E+00 0.00000000000E+00  1.
       23    2    1    2    0    0  1.74428215139E+02 -1.36114689445E+00  9.57322338094E+01  2.18352150858E+02  8.99218896415E+01 0.00000000000E+00  1.
       25    2    1    2    0    0 -1.74428215139E+02  1.36114689445E+00 -1.32996924569E+02  2.52468288904E+02  1.25000000000E+02 0.00000000000E+00  1.
       13    1    3    3    0    0  8.77827049391E+01  3.12226968606E+01  8.32494131621E+01  1.24944531859E+02  1.05659999995E-01 0.00000000000E+00  1.
      -13    1    3    3    0    0  8.66455101994E+01 -3.25838437551E+01  1.24828206473E+01  9.34076189983E+01  1.05660000002E-01 0.00000000000E+00  1.
       23    2    4    4    0    0 -1.34927913808E+02 -1.29626106607E+01 -1.13078244530E+02  1.96404757535E+02  8.61078869587E+01 0.00000000000E+00  1.
       23    2    4    4    0    0 -3.95003013306E+01  1.43237575551E+01 -1.99186800385E+01  5.60635313689E+01  3.13196727213E+01 0.00000000000E+00  1.
      -13    1    7    7    0    0 -7.34783566665E+01 -3.78589651698E+01 -2.53848574389E+01  8.64683311587E+01  1.05659999997E-01 0.00000000000E+00  1.
       13    1    7    7    0    0 -6.14495571418E+01  2.48963545092E+01 -8.76933870916E+01  1.09936426376E+02  1.05659999970E-01 0.00000000000E+00  1.
       -2    1    8    8    0  804  4.21081459346E+00  3.78763513793E+00  2.04659496206E+00  6.02210016666E+00  2.38580414233E-07 0.00000000000E+00  1.
        2    1    8    8  804    0 -4.37111159241E+01  1.05361224172E+01 -2.19652750006E+01  5.00414312023E+01  7.90253409579E-07 0.00000000000E+00  1.
</event>
<event>
 0  51   0.0000000E+00   1.2500000E+02   7.8125000E-03   1.2380865E-01
</event>
<event>
 0  51   0.0000000E+00   1.2500000E+02   7.8125000E-03   1.2380865E-01
</event>
<event>
 0  51   0.0000000E+00   1.2500000E+02   7.8125000E-03   1.2380865E-01
</event>
<event>
12  51   1.0000000E+00   1.2500000E+02   7.8125000E-03   1.2380865E-01
       21   -1    0    0  503  504  0.00000000000E+00  0.00000000000E+00  3.44211044668E+01  3.44211044668E+01  0.00000000000E+00 0.00000000000E+00  1.
       21   -1    0    0  504  503  0.00000000000E+00  0.00000000000E+00 -6.86357750333E+02  6.86357750333E+02  0.00000000000E+00 0.00000000000E+00  1.
       23    2    1    2    0    0 -5.46920183631E+01 -8.54727446863E+01 -2.14192842443E+02  2.54365471210E+02  9.23385739166E+01 0.00000000000E+00  1.
       25    2    1    2    0    0  5.46920183631E+01  8.54727446863E+01 -4.37743803423E+02  4.66413383590E+02  1.25000000000E+02 0.00000000000E+00  1.
       11    1    3    3    0    0 -6.11257086675E-01  1.18418741384E+01  1.18275693772E+00  1.19164815516E+01  5.10999557584E-04 0.00000000000E+00  1.
      -11    1    3    3    0    0 -5.40807612764E+01 -9.73146188247E+01 -2.15375599381E+02  2.42448989658E+02  5.10991478305E-04 0.00000000000E+00  1.
       23    2    4    4    0    0  6.51453917149E+01  2.11096956942E+01 -1.92456653332E+02  2.06194118393E+02  2.80519114135E+01 0.00000000000E+00  1.
       23    2    4    4    0    0 -1.04533733518E+01  6.43630489921E+01 -2.45287150091E+02  2.60219265197E+02  5.74143265233E+01 0.00000000000E+00  1.
      -11    1    7    7    0    0  1.88093161616E+01 -3.57215261643E+00 -7.72843528204E+01  7.96204863079E+01  5.11000122038E-04 0.00000000000E+00  1.
       11    1    7    7    0    0  4.63360755533E+01  2.46818483106E+01 -1.15172300512E+02  1.26573632085E+02  5.11003380998E-04 0.00000000000E+00  1.
      -15    1    8    8    0    0 -1.08557695515E+01  2.83399570757E+01 -2.00127612829E+02  2.02423366572E+02  1.77680000000E+00 0.00000000000E+00  1.
       15    1    8    8    0    0  4.02396199739E-01  3.60230919164E+01 -4.51595372619E+01  5.77958986250E+01  1.77680000000E+00 0.00000000000E+00  1.
</event>
<event>
 0  51   0.0000000E+00   1.2500000E+02   7.8125000E-03   1.2380865E-01
</event>
<event>
12  51   1.0000000E+00   1.2500000E+02   7.8125000E-03   1.2380865E-01
       21   -1    0    0  503  504  0.00000000000E+00  0.00000000000E+00  2.77853379772E+03  2.77853379772E+03  0.00000000000E+00 0.00000000000E+00  1.
       21   -1    0    0  504  503  0.00000000000E+00  0.00000000000E+00 -2.17567356506E+01  2.17567356506E+01  0.00000000000E+00 0.00000000000E+00  1.
       23    2    1    2    0    0  3.27597647413E+01 -1.56175321541E+02  2.20183510800E+03  2.20948641555E+03  9.10408943575E+01 0.00000000000E+00  1.
       25    2    1    2    0    0 -3.27597647413E+01  1.56175321541E+02  5.54941954070E+02  5.90804117819E+02  1.25000000000E+02 0.00000000000E+00  1.
       15    1    3    3    0    0  5.06816461620E+01 -1.15382997027E+02  1.18707845263E+03  1.19375050784E+03  1.77679999982E+00 0.00000000000E+00  1.
      -15    1    3    3    0    0 -1.79218814208E+01 -4.07923245139E+01  1.01475665537E+03  1.01573590771E+03  1.77680000005E+00 0.00000000000E+00  1.
       23    2    4    4    0    0 -4.17060285458E+01  8.97774665225E+01  3.14826037347E+02  3.41232644630E+02  8.67461679690E+01 0.00000000000E+00  1.
       23    2    4    4    0    0  8.94626380447E+00  6.63978550185E+01  2.40115916723E+02  2.49571473189E+02  1.18977299885E+01 0.00000000000E+00  1.
       -5    1    7    7    0  804 -4.35500490125E+01  9.67674579689E+01  2.03352036188E+02  2.29423540232E+02  4.75000000000E+00 0.00000000000E+00  1.
        5    1    7    7  804    0  1.84402046670E+00 -6.98999144646E+00  1.11474001158E+02  1.11809104398E+02  4.75000000000E+00 0.00000000000E+00  1.
      -13    1    8    8    0    0  8.18073384467E+00  1.96794580083E+01  7.33531732298E+01  7.63865476419E+01  1.05659999997E-01 0.00000000000E+00  1.
       13    1    8    8    0    0  7.65529959801E-01  4.67183970103E+01  1.66762743494E+02  1.73184925547E+02  1.05660000012E-01 0.00000000000E+00  1.
</event>
<event>
12  51   1.0000000E+00   1.2500000E+02   7.8125000E-03   1.2380865E-01
       21   -1    0    0  503  504  0.00000000000E+00  0.00000000000E+00  5.93021473508E+02  5.93021473508E+02  0.00000000000E+00 0.00000000000E+00  1.
       21   -1    0    0  504  503  0.00000000000E+00  0.00000000000E+00 -5.45195220340E+01  5.45195220340E+01  0.00000000000E+00 0.00000000000E+00  1.
       23    2    1    2    0    0  6.95514293601E+01 -2.84263900316E+01  4.73143211794E+02  4.87721641806E+02  9.14463779622E+01 0.00000000000E+00  1.
       25    2    1    2    0    0 -6.95514293601E+01  2.84263900316E+01  6.53587396803E+01  1.59819353737E+02  1.25000000000E+02 0.00000000000E+00  1.
       11    1    3    3    0    0  3.98964631512E+01  2.94651364752E+01  2.66743349634E+02  2.71315197904E+02  5.10984358804E-04 0.00000000000E+00  1.
      -11    1    3    3    0    0  2.96549662089E+01 -5.78915265067E+01  2.06399862160E+02  2.16406443902E+02  5.11012836212E-04 0.00000000000E+00  1.
       23    2    4    4    0    0 -6.03954859921E+01  8.13612690066E+00  7.35372810860E+01  1.22593532749E+02  7.68611167838E+01 0.00000000000E+00  1.
       23    2    4    4    0    0 -9.15594336801E+00  2.02902631309E+01 -8.17854140569E+00  3.72258209878E+01  2.86940260648E+01 0.00000000000E+00  1.
      -11    1    7    7    0    0 -6.86131162159E+01  6.79908758163E-01  2.53568127574E+01  7.31518280445E+01  5.11001208360E-04 0.00000000000E+00  1.
       11    1    7    7    0    0  8.21763022383E+00  7.45621814250E+00  4.81804683286E+01  4.94417047047E+01  5.11000122038E-04 0.00000000000E+00  1.
       -1    1    8    8    0  804  4.26393307628E+00  2.18261312377E+01 -1.86833025886E+00  2.23170739130E+01  3.44557887571E-07 0.00000000000E+00  1.
        1    1    8    8  804    0 -1.34198764443E+01 -1.53586810673E+00 -6.31021114683E+00  1.49087470748E+01  2.79396772385E-07 0.00000000000E+00  1.
</event>
<event>
 0  51   0.0000000E+00   1.2500000E+02   7.8125000E-03   1.2380865E-01
</event>
<event>
 0  51   0.0000000E+00   1.2500000E+02   7.8125000E-03   1.2380865E-01
</event>
<event>
 0  51   0.0000000E+00   1.2500000E+02   7.8125000E-03   1.2380865E-01
</event>
<event>
 0  51   0.0000000E+00   1.2500000E+02   7.8125000E-03   1.2380865E-01
</event>
<event>
 0  51   0.0000000E+00   1.2500000E+02   7.8125000E-03   1.2380865E-01
</event>
<event>
 0  51   0.0000000E+00   1.2500000E+02   7.8125000E-03   1.2380865E-01
</event>
<event>
 0  51   0.0000000E+00   1.2500000E+02   7.8125000E-03   1.2380865E-01
</event>
<event>
 0  51   0.0000000E+00   1.2500000E+02   7.8125000E-03   1.2380865E-01
</event>
<event>
 0  51   0.0000000E+00   1.2500000E+02   7.8125000E-03   1.2380865E-01
</event>
<event>
 0  51   0.0000000E+00   1.2500000E+02   7.8125000E-03   1.2380865E-01
</event>
<event>
12  51   1.0000000E+00   1.2500000E+02   7.8125000E-03   1.2380865E-01
       21   -1    0    0  503  504  0.00000000000E+00  0.00000000000E+00  1.55915003110E+02  1.55915003110E+02  0.00000000000E+00 0.00000000000E+00  1.
       21   -1    0    0  504  503  0.00000000000E+00  0.00000000000E+00 -4.29318458152E+02  4.29318458152E+02  0.00000000000E+00 0.00000000000E+00  1.
       23    2    1    2    0    0 -2.17127476097E+02  5.90743594552E+01 -5.90945175303E+01  2.50289523388E+02  9.22960600154E+01 0.00000000000E+00  1.
       25    2    1    2    0    0  2.17127476097E+02 -5.90743594552E+01 -2.14308937511E+02  3.34943937874E+02  1.25000000000E+02 0.00000000000E+00  1.
       11    1    3    3    0    0 -9.83288488576E+01  1.91414353945E+01  1.99126731131E+01  1.02134576013E+02  5.10998208367E-04 0.00000000000E+00  1.
      -11    1    3    3    0    0 -1.18798627239E+02  3.99329240607E+01 -7.90071906434E+01  1.48154947374E+02  5.11003937192E-04 0.00000000000E+00  1.
       23    2    4    4    0    0  9.69125044891E+01 -1.53374450719E+01 -6.55081626348E+01  1.21337503313E+02  2.83584130502E+01 0.00000000000E+00  1.
       23    2    4    4    0    0  1.20214971608E+02 -4.37369143833E+01 -1.48800774876E+02  2.13606434561E+02  8.43888689562E+01 0.00000000000E+00  1.
      -15    1    7    7    0    0  8.49130004603E+01 -4.95772765408E+00 -4.81618596597E+01  9.77625616215E+01  1.77680000000E+00 0.00000000000E+00  1.
       15    1    7    7    0    0  1.19995040288E+01 -1.03797174178E+01 -1.73463029751E+01  2.35749416914E+01  1.77680000000E+00 0.00000000000E+00  1.
       -1    1    8    8    0  804  9.75168854276E+01 -4.72834658273E+01 -1.55623155835E+02  1.89641334408E+02  2.98023223877E-06 0.00000000000E+00  1.
        1    1    8    8  804    0  2.26980861803E+01  3.54655144397E+00  6.82238095866E+00  2.39651001529E+01  4.36829008146E-07 0.00000000000E+00  1.
</event>
<event>
 0  51   0.0000000E+00   1.2500000E+02   7.8125000E-03   1.2380865E-01
</event>
<event>
 0  51   0.0000000E+00   1.2500000E+02   7.8125000E-03   1.2380865E-01
</event>
<event>
 0  51   0.0000000E+00   1.2500000E+02   7.8125000E-03   1.2380865E-01
</event>
<event>
12  51   1.0000000E+00   1.2500000E+02   7.8125000E-03   1.2380865E-01
       21   -1    0    0  503  504  0.00000000000E+00  0.00000000000E+00  8.13850619174E+01  8.13850619174E+01  0.00000000000E+00 0.00000000000E+00  1.
       21   -1    0    0  504  503  0.00000000000E+00  0.00000000000E+00 -4.10594767345E+02  4.10594767345E+02  0.00000000000E+00 0.00000000000E+00  1.
       23    2    1    2    0    0 -9.64453845762E+00  3.78903181572E+01  2.39803186793E+01  1.15287797941E+02  1.05771108239E+02 0.00000000000E+00  1.
       25    2    1    2    0    0  9.64453845762E+00 -3.78903181572E+01 -3.53190024107E+02  3.76692031321E+02  1.25000000000E+02 0.00000000000E+00  1.
       15    1    3    3    0    0 -3.60013560538E+00  5.47648658003E+01 -2.70204029201E+01  6.11997605772E+01  1.77680000000E+00 0.00000000000E+00  1.
      -15    1    3    3    0    0 -6.04440285224E+00 -1.68745476431E+01  5.10007215994E+01  5.40880373641E+01  1.77680000000E+00 0.00000000000E+00  1.
       23    2    4    4    0    0  2.05216928253E+01 -2.90179457283E+01 -2.20668480631E+02  2.40765366124E+02  8.94997325691E+01 0.00000000000E+00  1.
       23    2    4    4    0    0 -1.08771543677E+01 -8.87237242885E+00 -1.32521543476E+02  1.35926665197E+02  2.67781132039E+01 0.00000000000E+00  1.
      -15    1    7    7    0    0  3.32616121943E+01 -2.37150993897E+01 -3.28983558343E+01  5.24804689353E+01  1.77680000000E+00 0.00000000000E+00  1.
       15    1    7    7    0    0 -1.27399193690E+01 -5.30284633866E+00 -1.87770124797E+02  1.88284897188E+02  1.77680000000E+00 0.00000000000E+00  1.
       -2    1    8    8    0  804  7.15571725698E+00 -6.58997334490E+00 -2.40532993331E+01  2.59459678362E+01  2.63417803193E-07 0.00000000000E+00  1.
        2    1    8    8  804    0 -1.80328716246E+01 -2.28239908395E+00 -1.08468244143E+02  1.09980697361E+02  0.00000000000E+00 0.00000000000E+00  1.
</event>
<event>
 0  51   0.0000000E+00   1.2500000E+02   7.8125000E-03   1.2380865E-01
</event>
<event>
 0  51   0.0000000E+00   1.2500000E+02   7.8125000E-03   1.2380865E-01
</event>
<event>
12  51   1.0000000E+00   1.2500000E+02   7.8125000E-03   1.2380865E-01
       21   -1    0    0  503  504  0.00000000000E+00  0.00000000000E+00  2.58342032448E+02  2.58342032448E+02  0.00000000000E+00 0.00000000000E+00  1.
       21   -1    0    0  504  503  0.00000000000E+00  0.00000000000E+00 -1.15433820955E+02  1.15433820955E+02  0.00000000000E+00 0.00000000000E+00  1.
       23    2    1    2    0    0  2.38561960580E+01  3.05835835016E+01 -7.49648374315E+01  1.19614213658E+02  8.47547024522E+01 0.00000000000E+00  1.
       25    2    1    2    0    0 -2.38561960580E+01 -3.05835835016E+01  2.17873048925E+02  2.54161639745E+02  1.25000000000E+02 0.00000000000E+00  1.
       14    1    3    3    0    0  2.61566907017E+01 -1.46033795553E+01 -6.73773359944E+01  7.37369416820E+01  1.65181236989E-06 0.00000000000E+00  1.
      -14    1    3    3    0    0 -2.30049464379E+00  4.51869630569E+01 -7.58750143703E+00  4.58772719761E+01  6.01977404258E-07 0.00000000000E+00  1.
       23    2    4    4    0    0 -1.13788711749E+01 -1.77427751373E+01  8.90903283341E+01  1.06344694026E+02  5.41093574724E+01 0.00000000000E+00  1.
       23    2    4    4    0    0 -1.24773248831E+01 -1.28408083643E+01  1.28782720591E+02  1.47816945719E+02  7.03156477829E+01 0.00000000000E+00  1.
      -13    1    7    7    0    0  1.47389565943E+01  6.47313273412E+00  5.39894526689E+01  5.63383568486E+01  1.05659999999E-01 0.00000000000E+00  1.
       13    1    7    7    0    0 -2.61178277693E+01 -2.42159078714E+01  3.51008756652E+01  5.00063371776E+01  1.05660000001E-01 0.00000000000E+00  1.
      -13    1    8    8    0    0 -1.63909851179E+00 -2.09711908373E+01  2.93177069928E+00  2.12387366040E+01  1.05659999999E-01 0.00000000000E+00  1.
       13    1    8    8    0    0 -1.08382263713E+01  8.13038247300E+00  1.25850949892E+02  1.26578209115E+02  1.05660000023E-01 0.00000000000E+00  1.
</event>
<event>
 0  51   0.0000000E+00   1.2500000E+02   7.8125000E-03   1.2380865E-01
</event>
<event>
 0  51   0.0000000E+00   1.2500000E+02   7.8125000E-03   1.2380865E-01
</event>
<event>
 0  51   0.0000000E+00   1.2500000E+02   7.8125000E-03   1.2380865E-01
</event>
<event>
 0  51   0.0000000E+00   1.2500000E+02   7.8125000E-03   1.2380865E-01
</event>
<event>
 0  51   0.0000000E+00   1.2500000E+02   7.8125000E-03   1.2380865E-01
</event>
<event>
12  51   1.0000000E+00   1.2500000E+02   7.8125000E-03   1.2380865E-01
       21   -1    0    0  503  504  0.00000000000E+00  0.00000000000E+00  3.34823560761E+02  3.34823560761E+02  0.00000000000E+00 0.00000000000E+00  1.
       21   -1    0    0  504  503  0.00000000000E+00  0.00000000000E+00 -1.11616575768E+02  1.11616575768E+02  0.00000000000E+00 0.00000000000E+00  1.
       23    2    1    2    0    0 -1.36691520704E+02  6.40318527691E+01  4.61520309407E+01  1.82322536291E+02  9.12515604157E+01 0.00000000000E+00  1.
       25    2    1    2    0    0  1.36691520704E+02 -6.40318527691E+01  1.77054954052E+02  2.64117600238E+02  1.25000000000E+02 0.00000000000E+00  1.
        5    1    3    3  502    0 -1.26697591126E+02  8.37106028564E+01  3.07952714544E+01  1.55018243674E+02  4.75000000000E+00 0.00000000000E+00  1.
       -5    1    3    3    0  502 -9.99392957719E+00 -1.96787500873E+01  1.53567594862E+01  2.73042926169E+01  4.75000000000E+00 0.00000000000E+00  1.
       23    2    4    4    0    0  1.48935464455E+01 -1.14543463689E+01  3.41184094725E+01  4.83545624437E+01  2.86544598227E+01 0.00000000000E+00  1.
       23    2    4    4    0    0  1.21797974259E+02 -5.25775064002E+01  1.42936544580E+02  2.15763037794E+02  9.23238430155E+01 0.00000000000E+00  1.
      -15    1    7    7    0    0 -7.63172257394E+00 -8.36127072642E+00  1.14474811290E+01  1.61974034970E+01  1.77680000000E+00 0.00000000000E+00  1.
       15    1    7    7    0    0  2.25252690194E+01 -3.09307564247E+00  2.26709283435E+01  3.21571589467E+01  1.77680000000E+00 0.00000000000E+00  1.
      -13    1    8    8    0    0  7.66529376940E+01  1.70229109252E+01  7.40816106360E+01  1.07951602822E+02  1.05659999991E-01 0.00000000000E+00  1.
       13    1    8    8    0    0  4.51450365646E+01 -6.96004173254E+01  6.88549339436E+01  1.07811434972E+02  1.05659999989E-01 0.00000000000E+00  1.
</event>
<event>
12  51   1.0000000E+00   1.2500000E+02   7.8125000E-03   1.2380865E-01
       21   -1    0    0  503  504  0.00000000000E+00  0.00000000000E+00  4.47592801266E+02  4.47592801266E+02  0.00000000000E+00 0.00000000000E+00  1.
       21   -1    0    0  504  503  0.00000000000E+00  0.00000000000E+00 -7.08684861697E+01  7.08684861697E+01  0.00000000000E+00 0.00000000000E+00  1.
       23    2    1    2    0    0  9.91088288519E+01  7.67921610724E+01  8.92813367069E+01  1.80869726842E+02  9.49900260304E+01 0.00000000000E+00  1.
       25    2    1    2    0    0 -9.91088288519E+01 -7.67921610724E+01  2.87442978390E+02  3.37591560594E+02  1.25000000000E+02 0.00000000000E+00  1.
        5    1    3    3  502    0  4.60307254456E+01 -4.20010625675E+00 -3.60280809830E+00  4.66048420640E+01  4.75000000000E+00 0.00000000000E+00  1.
       -5    1    3    3    0  502  5.30781034063E+01  8.09922673292E+01  9.28841448052E+01  1.34264884778E+02  4.75000000000E+00 0.00000000000E+00  1.
       23    2    4    4    0    0 -3.66433642730E+01 -2.96811888018E+01  6.28845455647E+01  8.37148073472E+01  2.88096127077E+01 0.00000000000E+00  1.
       23    2    4    4    0    0 -6.24654645789E+01 -4.71109722706E+01  2.24558432825E+02  2.53876753247E+02  8.89130930338E+01 0.00000000000E+00  1.
      -15    1    7    7    0    0 -4.08869551269E+01 -2.87079187964E+01  6.03744507416E+01  7.83844309909E+01  1.77680000000E+00 0.00000000000E+00  1.
       15    1    7    7    0    0  4.24359085395E+00 -9.73270005353E-01  2.51009482310E+00  5.33037635632E+00  1.77680000000E+00 0.00000000000E+00  1.
      -13    1    8    8    0    0 -8.30555324313E+01 -2.19213415438E+01  1.63377675156E+02  1.84583429879E+02  1.05660000034E-01 0.00000000000E+00  1.
       13    1    8    8    0    0  2.05900678523E+01 -2.51896307268E+01  6.11807576696E+01  6.92933233679E+01  1.05659999999E-01 0.00000000000E+00  1.
</event>
<event>
12  51   1.0000000E+00   1.2500000E+02   7.8125000E-03   1.2380865E-01
       21   -1    0    0  503  504  0.00000000000E+00  0.00000000000E+00  4.12967685833E+02  4.12967685833E+02  0.00000000000E+00 0.00000000000E+00  1.
       21   -1    0    0  504  503  0.00000000000E+00  0.00000000000E+00 -8.65239682699E+01  8.65239682699E+01  0.00000000000E+00 0.00000000000E+00  1.
       23    2    1    2    0    0  6.35034569247E+01  1.40476507548E+02  1.55004826472E+02  2.37227223436E+02  9.21082031944E+01 0.00000000000E+00  1.
       25    2    1    2    0    0 -6.35034569247E+01 -1.40476507548E+02  1.71438891091E+02  2.62264430666E+02  1.25000000000E+02 0.00000000000E+00  1.
        3    1    3    3  502    0  8.75380547794E+01  1.15448808343E+02  1.24882130934E+02  1.91276985048E+02  0.00000000000E+00 0.00000000000E+00  1.
       -3    1    3    3    0  502 -2.40345978547E+01  2.50276992045E+01  3.01226955378E+01  4.59502383886E+01  8.25906184945E-07 0.00000000000E+00  1.
       23    2    4    4    0    0 -3.85221514965E+00 -4.24521808635E+01  3.50683989225E+01  6.18326031004E+01  2.78648700259E+01 0.00000000000E+00  1.
       23    2    4    4    0    0 -5.96512417750E+01 -9.80243266845E+01  1.36370492169E+02  2.00431827566E+02  9.17004203902E+01 0.00000000000E+00  1.
      -11    1    7    7    0    0 -1.50780625695E+01 -3.26199868418E+01  2.33141753092E+01  4.28364597396E+01  5.11000393619E-04 0.00000000000E+00  1.
       11    1    7    7    0    0  1.12258474199E+01 -9.83219402171E+00  1.17542236133E+01  1.89961433609E+01  5.10999952300E-04 0.00000000000E+00  1.
      -11    1    8    8    0    0 -8.38961018052E+01 -7.87026228003E+01  1.15807258985E+02  1.63229837859E+02  5.10992517716E-04 0.00000000000E+00  1.
       11    1    8    8    0    0  2.42448600301E+01 -1.93217038842E+01  2.05632331835E+01  3.72019897061E+01  5.11000189933E-04 0.00000000000E+00  1.
</event>
<event>
 0  51   0.0000000E+00   1.2500000E+02   7.8125000E-03   1.2380865E-01
</event>
<event>
 0  51   0.0000000E+00   1.2500000E+02   7.8125000E-03   1.2380865E-01
</event>
<event>
 0  51   0.0000000E+00   1.2500000E+02   7.8125000E-03   1.2380865E-01
</event>
<event>
 0  51   0.0000000E+00   1.2500000E+02   7.8125000E-03   1.2380865E-01
</event>
<event>
 0  51   0.0000000E+00   1.2500000E+02   7.8125000E-03   1.2380865E-01
</event>
<event>
 0  51   0.0000000E+00   1.2500000E+02   7.8125000E-03   1.2380865E-01
</event>
<event>
12  51   1.0000000E+00   1.2500000E+02   7.8125000E-03   1.2380865E-01
       21   -1    0    0  503  504  0.00000000000E+00  0.00000000000E+00  2.26847013694E+02  2.26847013694E+02  0.00000000000E+00 0.00000000000E+00  1.
       21   -1    0    0  504  503  0.00000000000E+00  0.00000000000E+00 -4.58609787039E+02  4.58609787039E+02  0.00000000000E+00 0.00000000000E+00  1.
       23    2    1    2    0    0  2.21701957043E+02  1.81097989658E+02 -6.59841836202E+00  3.00395472670E+02  9.08056235111E+01 0.00000000000E+00  1.
       25    2    1    2    0    0 -2.21701957043E+02 -1.81097989658E+02 -2.25164354983E+02  3.85061328063E+02  1.25000000000E+02 0.00000000000E+00  1.
       11    1    3    3    0    0  1.70190152300E+02  1.35587914384E+02 -4.42078866334E+01  2.22043031208E+02  5.10981688966E-04 0.00000000000E+00  1.
      -11    1    3    3    0    0  5.15118047425E+01  4.55100752738E+01  3.76094682713E+01  7.83524414627E+01  5.10995038018E-04 0.00000000000E+00  1.
       23    2    4    4    0    0 -1.34845901782E+02 -1.17514333084E+02 -1.23333699267E+02  2.34557588338E+02  8.83913183758E+01 0.00000000000E+00  1.
       23    2    4    4    0    0 -8.68560552615E+01 -6.35836565735E+01 -1.01830655716E+02  1.50503739725E+02  2.63635640422E+01 0.00000000000E+00  1.
      -15    1    7    7    0    0  4.30732001612E+00 -2.75411814184E+01  8.39452793418E-02  2.79326644753E+01  1.77680000000E+00 0.00000000000E+00  1.
       15    1    7    7    0    0 -1.39153221798E+02 -8.99731516661E+01 -1.23417644547E+02  2.06624923862E+02  1.77680000000E+00 0.00000000000E+00  1.
      -14    1    8    8    0    0 -1.74054457407E+01 -5.15615812788E+00 -2.86483508039E+01  3.39155349634E+01  6.45239206988E-07 0.00000000000E+00  1.
       14    1    8    8    0    0 -6.94506095208E+01 -5.84274984456E+01 -7.31823049118E+01  1.16588204762E+02  1.49011611938E-06 0.00000000000E+00  1.
</event>
<event>
 0  51   0.0000000E+00   1.2500000E+02   7.8125000E-03   1.2380865E-01
</event>
<!-- Filter information:
     events processed:       100
     events accepted:         17
     filter efficiency:  17.00% -->
</LesHouchesEvents>
